   35
Geometry Step: 0
    C     -3.62935029      1.87371875      0.26709474      3.94621136
    O     -2.57698542      2.38605575     -0.55467978      6.33938230
    C     -2.37444136      1.58916185     -1.65610809      3.73777572
    C     -1.68500793      0.36546119     -1.54984344      3.94239237
    N     -1.21070375     -0.13313420     -0.32047182      5.06568571
    N      0.00000000      0.00000000      0.00000000      5.03793699
    C      0.90843088      0.65175954     -0.86559329      3.86059335
    C      1.04560051      2.05824975     -0.82171152      3.98210144
    C      0.28575133      2.91280058      0.15921805      4.25163577
    C      1.97130751      2.70100964     -1.66503022      4.09094110
    C      2.78600592      1.96965783     -2.52519031      4.08526534
    C      2.69737962      0.58264433     -2.54291984      4.11050621
    C      1.76478415     -0.07056643     -1.71949123      4.14574319
    C      1.73478462     -1.54816435     -1.74086305      3.32006453
    O      1.79587230     -2.25467245     -0.75315429      6.51249706
    O      1.61865848     -2.03529224     -2.99874479      6.49238654
    C     -1.54856714     -0.43045010     -2.69753302      4.13128661
    C     -2.00355867      0.01663096     -3.93735503      4.20881474
    C     -2.61654926      1.26120544     -4.03279798      3.62578994
    F     -3.02782894      1.67916546     -5.23819336      7.24405514
    C     -2.80794680      2.05705594     -2.90521273      4.08728997
    C     -3.45279123      3.32614137     -3.04269116      3.80838639
    N     -3.98034205      4.35436723     -3.15393036      5.27807159
    H     -3.90983485      2.65948854      0.97488157      0.93362884
    H     -3.29319864      1.00719663      0.84378161      0.94739387
    H     -4.51608436      1.61816311     -0.32403243      0.95090266
    H     -0.53716865      2.38150517      0.64300302      0.90263530
    H      0.96472980      3.26195961      0.94414316      0.90672066
    H     -0.14360751      3.78230171     -0.34996495      0.90557361
    H      2.07572254      3.78504928     -1.63012868      0.90980079
    H      3.51205462      2.48248968     -3.15245566      0.91076769
    H      3.38091405      0.01415154     -3.17046246      0.91214057
    H      1.49304299     -1.35923976     -3.69131559      0.64548258
    H     -1.07304677     -1.40840054     -2.61748994      0.88917952
    H     -1.88445793     -0.59914808     -4.82482330      0.88096055
   35
Geometry Step: 1
    C     -3.63043148      1.90302314      0.29455422      3.93551621
    O     -2.60235034      2.38406809     -0.54500953      6.34240396
    C     -2.35560673      1.58563077     -1.65199679      3.71433581
    C     -1.69078150      0.37540866     -1.62618061      3.98490087
    N     -1.21340503     -0.15020698     -0.23715516      5.07130899
    N     -0.01115499     -0.03976683      0.03239736      5.05252817
    C      0.94535996      0.71946624     -0.90709584      3.89171796
    C      1.05104846      2.08587109     -0.81675855      3.95593066
    C      0.27254159      2.91202406      0.16089029      4.25268073
    C      1.96434440      2.69085380     -1.65527477      4.08791565
    C      2.79517463      1.97964224     -2.53035260      4.08839171
    C      2.69557874      0.59496370     -2.54236280      4.10617673
    C      1.77496998     -0.05471869     -1.71213085      4.12145787
    C      1.72609114     -1.54784175     -1.72707100      3.34520111
    O      1.79365884     -2.27514559     -0.75659463      6.46686836
    O      1.61335463     -2.07747717     -3.04739417      6.52699483
    C     -1.53948388     -0.44354449     -2.69791066      4.10077930
    C     -2.00157218     -0.00339941     -3.95270398      4.22800357
    C     -2.60824609      1.23690949     -4.07149244      3.61301825
    F     -3.02926632      1.68493254     -5.23128803      7.22816250
    C     -2.81897820      2.07629191     -2.90940365      4.11951651
    C     -3.48546772      3.38879036     -3.04059856      3.80451508
    N     -3.96171772      4.31848062     -3.15065016      5.26751001
    H     -3.90777494      2.66024402      0.97450936      0.92393691
    H     -3.29116244      0.99271960      0.84376842      0.95672086
    H     -4.51556585      1.61356290     -0.32932457      0.96380053
    H     -0.52599123      2.38127551      0.63816234      0.89377222
    H      0.95887970      3.26565821      0.93955254      0.90883635
    H     -0.13606489      3.77873210     -0.34028175      0.90411064
    H      2.07081905      3.78057403     -1.62768620      0.91810342
    H      3.51003281      2.48003825     -3.15205237      0.90285095
    H      3.37501126      0.00867587     -3.16886671      0.91500079
    H      1.50088346     -1.36820745     -3.66640309      0.64503025
    H     -1.07376556     -1.40123785     -2.61732542      0.88266138
    H     -1.88539383     -0.59796827     -4.82253584      0.87934086
   35
Geometry Step: 2
    C     -3.62961863      1.88099169      0.27390980      3.94344038
    O     -2.58328063      2.38556244     -0.55227976      6.34027311
    C     -2.36976687      1.58828548     -1.65508773      3.73101368
    C     -1.68644085      0.36793001     -1.56878925      3.95296097
    N     -1.21137417     -0.13737142     -0.29979380      5.06902231
    N     -0.00276851     -0.00986957      0.00804057      5.04198380
    C      0.91759616      0.66856339     -0.87589364      3.86893780
    C      1.04695261      2.06510498     -0.82048226      3.97494317
    C      0.28247285      2.91260786      0.15963308      4.25199240
    C      1.96957937      2.69848910     -1.66260906      4.09072686
    C      2.78828147      1.97213582     -2.52647152      4.08565595
    C      2.69693267      0.58570183     -2.54278159      4.10965171
    C      1.76731213     -0.06663324     -1.71766449      4.13939615
    C      1.73262702     -1.54808428     -1.73744006      3.32613489
    O      1.79532295     -2.25975359     -0.75400813      6.50084470
    O      1.61734214     -2.04576195     -3.01081888      6.50141880
    C     -1.54631281     -0.43369994     -2.69762674      4.12264560
    C     -2.00306565      0.01165970     -3.94116442      4.21384838
    C     -2.61448853      1.25517553     -4.04240140      3.62196013
    F     -3.02818568      1.68059677     -5.23647956      7.24006408
    C     -2.81068464      2.06183004     -2.90625286      4.09588108
    C     -3.46090108      3.34168997     -3.04217181      3.80693316
    N     -3.97571975      4.34546068     -3.15311626      5.27542275
    H     -3.90932361      2.65967604      0.97478919      0.93122350
    H     -3.29269328      1.00360363      0.84377833      0.94954906
    H     -4.51595568      1.61702140     -0.32534586      0.95417358
    H     -0.53439457      2.38144817      0.64180163      0.90027968
    H      0.96327788      3.26287755      0.94300383      0.90723490
    H     -0.14173554      3.78141578     -0.34756172      0.90531403
    H      2.07450556      3.78393859     -1.62952249      0.91186601
    H      3.51155283      2.48188127     -3.15235557      0.90881044
    H      3.37944906      0.01279256     -3.17006642      0.91289392
    H      1.49498889     -1.36146541     -3.68513266      0.64543312
    H     -1.07322516     -1.40662286     -2.61744911      0.88747753
    H     -1.88469021     -0.59885527     -4.82425558      0.88059240
   35
Geometry Step: 3
    C     -3.63068745      1.88672679      0.28130502      3.94068009
    O     -2.59095177      2.38463572     -0.54959477      6.34053415
    C     -2.36693791      1.59216522     -1.65797380      3.72832511
    C     -1.68397489      0.36837413     -1.58126908      3.96272791
    N     -1.21601618     -0.14166375     -0.27859091      5.07055098
    N     -0.00063047     -0.01943762      0.01668503      5.04580774
    C      0.92303281      0.68405567     -0.88443020      3.87580635
    C      1.04803527      2.07642500     -0.81784085      3.96954164
    C      0.27944984      2.91311840      0.16033274      4.25187631
    C      1.97011302      2.69849661     -1.66154788      4.09092442
    C      2.78969632      1.97516114     -2.52657949      4.08493066
    C      2.69782100      0.58948529     -2.54385544      4.10869840
    C      1.77192410     -0.06177729     -1.71661692      4.13545157
    C      1.72915439     -1.55080576     -1.73524810      3.33254570
    O      1.79425965     -2.26620247     -0.75709126      6.48939171
    O      1.61619370     -2.06061772     -3.02075818      6.50755847
    C     -1.54394053     -0.43842086     -2.70294979      4.11576513
    C     -2.00209062      0.00460233     -3.94564907      4.21524098
    C     -2.61238304      1.25094246     -4.04886936      3.62114543
    F     -3.02921581      1.68281335     -5.23646393      7.23708618
    C     -2.81430121      2.06771755     -2.91014231      4.09672383
    C     -3.45644572      3.33229264     -3.03813237      3.80541795
    N     -3.98328351      4.36041444     -3.15492469      5.28039135
    H     -3.90917790      2.66222038      0.97667797      0.92916182
    H     -3.29245173      0.99947896      0.84348512      0.95117702
    H     -4.51478642      1.61590342     -0.32599257      0.95660738
    H     -0.53127819      2.38052603      0.64048415      0.89824476
    H      0.96078170      3.26425470      0.94125881      0.90728394
    H     -0.13946867      3.78082875     -0.34419445      0.90482870
    H      2.07262906      3.78191076     -1.62858157      0.91288953
    H      3.51151183      2.48171261     -3.15284172      0.90785707
    H      3.37695853      0.01106432     -3.16927119      0.91302426
    H      1.49748328     -1.36280739     -3.67874375      0.64639947
    H     -1.07272035     -1.40538543     -2.61703302      0.88592928
    H     -1.88473440     -0.59988565     -4.82510833      0.87947472
   35
Geometry Step: 4
    C     -3.63039892      1.88517860      0.27930868      3.94141914
    O     -2.58888095      2.38488588     -0.55031958      6.34047015
    C     -2.36770159      1.59111789     -1.65719471      3.72901690
    C     -1.68464057      0.36825424     -1.57790015      3.96008700
    N     -1.21476307     -0.14050503     -0.28431463      5.07023164
    N     -0.00120764     -0.01685473      0.01435146      5.04478153
    C      0.92156519      0.67987353     -0.88212576      3.87397778
    C      1.04774300      2.07336916     -0.81855390      3.97097119
    C      0.28026591      2.91298058      0.16014386      4.25190584
    C      1.96996896      2.69849459     -1.66183434      4.09088745
    C      2.78931438      1.97434446     -2.52655035      4.08511410
    C      2.69758120      0.58846395     -2.54356556      4.10896208
    C      1.77067910     -0.06308815     -1.71689971      4.13651491
    C      1.73009183     -1.55007110     -1.73583982      3.33080546
    O      1.79454669     -2.26446160     -0.75625897      6.49246947
    O      1.61650372     -2.05660741     -3.01807507      6.50591444
    C     -1.54458093     -0.43714645     -2.70151283      4.11756953
    C     -2.00235383      0.00650747     -3.94443844      4.21488823
    C     -2.61295142      1.25208518     -4.04712334      3.62133559
    F     -3.02893772      1.68221498     -5.23646815      7.23789157
    C     -2.81332492      2.06612822     -2.90909235      4.09656032
    C     -3.45764845      3.33482945     -3.03922282      3.80576053
    N     -3.98124167      4.35637767     -3.15443651      5.27904580
    H     -3.90921723      2.66153353      0.97616810      0.92971813
    H     -3.29251694      1.00059241      0.84356428      0.95073052
    H     -4.51510206      1.61620522     -0.32581799      0.95595717
    H     -0.53211946      2.38077496      0.64083981      0.89878689
    H      0.96145555      3.26388294      0.94172988      0.90727338
    H     -0.14008061      3.78098722     -0.34510345      0.90496639
    H      2.07313562      3.78245817     -1.62883557      0.91261584
    H      3.51152290      2.48175814     -3.15271048      0.90811534
    H      3.37763085      0.01153086     -3.16948587      0.91299183
    H      1.49680992     -1.36244512     -3.68046844      0.64614484
    H     -1.07285662     -1.40571947     -2.61714534      0.88634322
    H     -1.88472247     -0.59960750     -4.82487813      0.87977580
   35
Geometry Step: 5
    C     -3.63285740      1.88204908      0.28221057      3.94127448
    O     -2.59348556      2.38404697     -0.55024517      6.34206297
    C     -2.36897104      1.59868370     -1.66433892      3.73157666
    C     -1.67798459      0.36665453     -1.56883003      3.96339531
    N     -1.21724133     -0.14144312     -0.27606397      5.06838264
    N      0.00369855     -0.01894211      0.01708903      5.04389772
    C      0.91537192      0.68051163     -0.88052738      3.87482598
    C      1.04766036      2.08393216     -0.81554807      3.97207491
    C      0.28028911      2.91548534      0.16132238      4.25140911
    C      1.97470833      2.70480740     -1.66398178      4.09285650
    C      2.78855946      1.97651344     -2.52466167      4.08248187
    C      2.70072981      0.59082694     -2.54640220      4.10906953
    C      1.77543474     -0.06058044     -1.71798659      4.13950100
    C      1.72649870     -1.55650785     -1.73907092      3.33276504
    O      1.79287935     -2.26990277     -0.76136449      6.49170514
    O      1.61624094     -2.06883990     -3.01622552      6.50104913
    C     -1.54321417     -0.44061089     -2.71103817      4.11976408
    C     -2.00234000      0.00261006     -3.94816611      4.20975502
    C     -2.61171326      1.25316277     -4.04358433      3.62317016
    F     -3.03050682      1.68423430     -5.23987685      7.24205954
    C     -2.81120774      2.06106475     -2.91520763      4.09027042
    C     -3.46087722      3.33974434     -3.03766264      3.80863320
    N     -3.98386581      4.36179705     -3.15488111      5.27600266
    H     -3.91008085      2.66791569      0.98162849      0.93110187
    H     -3.29322760      0.99850283      0.84290486      0.94941178
    H     -4.51242950      1.61605226     -0.32400256      0.95453280
    H     -0.53080092      2.37812919      0.64033065      0.89884256
    H      0.95842193      3.26560386      0.94029290      0.90647690
    H     -0.13896824      3.78219440     -0.34201713      0.90464688
    H      2.07140985      3.78093439     -1.62792913      0.91077689
    H      3.51251653      2.48287630     -3.15417388      0.91000395
    H      3.37486042      0.01016732     -3.16867053      0.91206804
    H      1.49902338     -1.36203237     -3.67759750      0.64828695
    H     -1.07074352     -1.40764248     -2.61640413      0.88661481
    H     -1.88422006     -0.60367605     -4.82938666      0.87925350
   35
Geometry Step: 6
    C     -3.63258403      1.88239707      0.28188789      3.94128730
    O     -2.59297355      2.38414025     -0.55025344      6.34189210
    C     -2.36882988      1.59784242     -1.66354452      3.73128026
    C     -1.67872471      0.36683241     -1.56983859      3.96302924
    N     -1.21696576     -0.14133881     -0.27698140      5.06858475
    N      0.00315300     -0.01871000      0.01678463      5.04400196
    C      0.91606058      0.68044068     -0.88070511      3.87472162
    C      1.04766955      2.08275761     -0.81588230      3.97195351
    C      0.28028653      2.91520682      0.16119134      4.25146487
    C      1.97418133      2.70410545     -1.66374300      4.09263755
    C      2.78864340      1.97627226     -2.52487168      4.08277425
    C      2.70037970      0.59056419     -2.54608678      4.10905705
    C      1.77490594     -0.06085929     -1.71786574      4.13916516
    C      1.72689824     -1.55579211     -1.73871164      3.33254327
    O      1.79306475     -2.26929774     -0.76079678      6.49179692
    O      1.61627016     -2.06747971     -3.01643118      6.50158469
    C     -1.54336615     -0.44022566     -2.70997900      4.11952516
    C     -2.00234154      0.00304343     -3.94775161      4.21031793
    C     -2.61185094      1.25304295     -4.04397785      3.62295806
    F     -3.03033235      1.68400976     -5.23949782      7.24160494
    C     -2.81144316      2.06162778     -2.91452764      4.09097477
    C     -3.46051820      3.33919783     -3.03783612      3.80831414
    N     -3.98357402      4.36119444     -3.15483167      5.27633927
    H     -3.90998482      2.66720603      0.98102132      0.93095324
    H     -3.29314858      0.99873518      0.84297818      0.94955661
    H     -4.51272668      1.61606927     -0.32420443      0.95469003
    H     -0.53094753      2.37842338      0.64038726      0.89883829
    H      0.95875925      3.26541250      0.94045268      0.90656549
    H     -0.13909193      3.78206016     -0.34236031      0.90468362
    H      2.07160174      3.78110383     -1.62802992      0.91098269
    H      3.51240604      2.48275197     -3.15401116      0.90979674
    H      3.37516848      0.01031894     -3.16876119      0.91217305
    H      1.49877725     -1.36207827     -3.67791673      0.64804984
    H     -1.07097848     -1.40742865     -2.61648655      0.88658836
    H     -1.88427593     -0.60322365     -4.82888533      0.87931326
   35
Geometry Step: 7
    C     -3.63569491      1.87973492      0.28598387      3.94223611
    O     -2.59771324      2.38451896     -0.55336465      6.34396319
    C     -2.36408489      1.59443773     -1.66405491      3.73106758
    C     -1.67558088      0.36764370     -1.56556706      3.96226011
    N     -1.21094158     -0.14020718     -0.27122216      5.06788256
    N      0.00282308     -0.01895988      0.01727215      5.04003557
    C      0.91086535      0.68179382     -0.87871190      3.87462331
    C      1.04947548      2.08505893     -0.81641453      3.97291378
    C      0.27963499      2.91953104      0.16340362      4.25326404
    C      1.97564771      2.70950166     -1.66223528      4.09268197
    C      2.79135048      1.97971445     -2.52587666      4.08336732
    C      2.70204578      0.59276005     -2.54722046      4.10881852
    C      1.77577057     -0.06068773     -1.71716201      4.14177286
    C      1.72379569     -1.56139570     -1.74555501      3.33449488
    O      1.79035111     -2.27753968     -0.76448258      6.49600212
    O      1.61476646     -2.07491853     -3.01624703      6.49458328
    C     -1.54075175     -0.43868914     -2.70690678      4.12035187
    C     -2.00401568      0.00227205     -3.95402033      4.21226623
    C     -2.61035216      1.25110341     -4.04860335      3.62030095
    F     -3.03112629      1.68513184     -5.24075112      7.24181072
    C     -2.81267943      2.06569030     -2.91974273      4.09420055
    C     -3.46536893      3.34604374     -3.03800996      3.80685704
    N     -3.98439421      4.36323242     -3.15429088      5.27586186
    H     -3.91057655      2.67346228      0.98705778      0.93143675
    H     -3.29419473      0.99593039      0.84280630      0.94825341
    H     -4.51079352      1.61554358     -0.32144860      0.95288332
    H     -0.52957840      2.37455440      0.63974531      0.89919191
    H      0.95574287      3.26878176      0.94067831      0.90584459
    H     -0.13902318      3.78573168     -0.33865202      0.90395614
    H      2.07067227      3.78428193     -1.62733960      0.90996001
    H      3.51320499      2.48439610     -3.15554726      0.90927995
    H      3.37307761      0.00824430     -3.16921324      0.91243231
    H      1.50250658     -1.36702041     -3.67147006      0.64853234
    H     -1.06756872     -1.41193136     -2.61655858      0.88772077
    H     -1.88372424     -0.60942307     -4.83634477      0.87889207
   35
Geometry Step: 8
    C     -3.63545706      1.87993846      0.28567071      3.94216122
    O     -2.59735086      2.38449001     -0.55312678      6.34380549
    C     -2.36444767      1.59469804     -1.66401589      3.73107889
    C     -1.67582125      0.36758167     -1.56589365      3.96231627
    N     -1.21140217     -0.14029370     -0.27166249      5.06793575
    N      0.00284830     -0.01894078      0.01723487      5.04034033
    C      0.91126255      0.68169037     -0.87886429      3.87462864
    C      1.04933741      2.08488298     -0.81637384      3.97283622
    C      0.27968480      2.91920042      0.16323448      4.25312685
    C      1.97553560      2.70908908     -1.66235055      4.09267698
    C      2.79114351      1.97945128     -2.52579982      4.08332259
    C      2.70191840      0.59259216     -2.54713378      4.10884145
    C      1.77570446     -0.06070084     -1.71721581      4.14157568
    C      1.72403290     -1.56096727     -1.74503180      3.33435009
    O      1.79055858     -2.27690954     -0.76420078      6.49567601
    O      1.61488143     -2.07434979     -3.01626111      6.49511588
    C     -1.54095164     -0.43880662     -2.70714167      4.12028982
    C     -2.00388768      0.00233102     -3.95354105      4.21212099
    C     -2.61046675      1.25125170     -4.04824970      3.62050282
    F     -3.03106559      1.68504605     -5.24065530      7.24179566
    C     -2.81258491      2.06537969     -2.91934401      4.09396026
    C     -3.46499806      3.34552033     -3.03799667      3.80696722
    N     -3.98433150      4.36307660     -3.15433223      5.27589654
    H     -3.91053131      2.67298395      0.98659626      0.93140152
    H     -3.29411474      0.99614483      0.84281944      0.94835243
    H     -4.51094132      1.61558377     -0.32165930      0.95302109
    H     -0.52968308      2.37485021      0.63979439      0.89916574
    H      0.95597349      3.26852416      0.94066106      0.90589957
    H     -0.13902844      3.78545097     -0.33893554      0.90401122
    H      2.07074333      3.78403894     -1.62739238      0.91003773
    H      3.51314390      2.48427040     -3.15542982      0.90931953
    H      3.37323747      0.00840292     -3.16917868      0.91241352
    H      1.50222145     -1.36664255     -3.67196294      0.64849711
    H     -1.06782941     -1.41158710     -2.61655308      0.88763467
    H     -1.88376642     -0.60894908     -4.83577445      0.87892424
   35
Geometry Step: 9
    C     -3.63764774      1.88064053      0.29095316      3.94239977
    O     -2.60213282      2.38446778     -0.55673062      6.34496021
    C     -2.36178491      1.59304890     -1.66554754      3.73031046
    C     -1.67307154      0.36749523     -1.56501318      3.96093428
    N     -1.21042638     -0.13967856     -0.26828675      5.06939283
    N      0.00782595     -0.01750758      0.01935147      5.04053393
    C      0.91060397      0.68292009     -0.87974131      3.87240016
    C      1.05045603      2.08499135     -0.81658085      3.97384773
    C      0.27868782      2.92204341      0.16447086      4.25343814
    C      1.97694995      2.71127193     -1.66101555      4.09145075
    C      2.79344968      1.98315482     -2.52623726      4.08354659
    C      2.70155194      0.59476741     -2.54617883      4.10857751
    C      1.77401086     -0.06129778     -1.71583915      4.14362215
    C      1.72177498     -1.56717474     -1.74820430      3.33524553
    O      1.78704590     -2.28393079     -0.77012914      6.49482179
    O      1.61292324     -2.08048184     -3.01676183      6.49317899
    C     -1.53847795     -0.43642728     -2.70438884      4.11841666
    C     -2.00326225     -0.00093973     -3.95598006      4.21464924
    C     -2.61041575      1.25185492     -4.05431372      3.62006621
    F     -3.03177356      1.68580132     -5.24236754      7.23889125
    C     -2.81291262      2.06962096     -2.92096405      4.09549633
    C     -3.46495785      3.34254736     -3.03800377      3.80618789
    N     -3.98892645      4.37242639     -3.15426808      5.27837741
    H     -3.91041560      2.67696954      0.99127765      0.93048823
    H     -3.29509385      0.99282178      0.84322478      0.94797720
    H     -4.51068429      1.61452117     -0.31884721      0.95262808
    H     -0.52797987      2.37110796      0.63895829      0.89925039
    H      0.95362334      3.27290842      0.94244827      0.90599937
    H     -0.13975324      3.79046663     -0.33515241      0.90378214
    H      2.07019573      3.78998880     -1.62663555      0.91068398
    H      3.51444156      2.48659751     -3.15747844      0.90871070
    H      3.37159884      0.00620170     -3.17031958      0.91346474
    H      1.50636428     -1.37279441     -3.66587691      0.64828092
    H     -1.06477533     -1.41505791     -2.61688008      0.88896606
    H     -1.88344435     -0.61502253     -4.84300809      0.87902238
   35
Geometry Step: 10
    C     -3.63699715      1.88043203      0.28938438      3.94232263
    O     -2.60071268      2.38447438     -0.55566035      6.34461978
    C     -2.36257569      1.59353866     -1.66509267      3.73053459
    C     -1.67388814      0.36752090     -1.56527466      3.96134775
    N     -1.21071617     -0.13986125     -0.26928928      5.06896765
    N      0.00634769     -0.01793321      0.01872289      5.04047780
    C      0.91079956      0.68255489     -0.87948085      3.87305732
    C      1.05012382      2.08495917     -0.81651937      3.97354985
    C      0.27898390      2.92119910      0.16410368      4.25334435
    C      1.97652992      2.71062367     -1.66141202      4.09181231
    C      2.79276480      1.98205495     -2.52610735      4.08348066
    C      2.70166077      0.59412141     -2.54646243      4.10865814
    C      1.77451383     -0.06112051     -1.71624799      4.14301646
    C      1.72244553     -1.56533125     -1.74726214      3.33497986
    O      1.78808910     -2.28184563     -0.76836854      6.49507441
    O      1.61350478     -2.07866075     -3.01661313      6.49375009
    C     -1.53921258     -0.43713389     -2.70520637      4.11897706
    C     -2.00344799      0.00003162     -3.95525572      4.21389853
    C     -2.61043089      1.25167578     -4.05251283      3.62020058
    F     -3.03156330      1.68557702     -5.24185904      7.23975358
    C     -2.81281530      2.06836139     -2.92048293      4.09504204
    C     -3.46496979      3.34343027     -3.03800166      3.80640465
    N     -3.98756184      4.36964970     -3.15428713      5.27763817
    H     -3.91044996      2.67578590      0.98988737      0.93075844
    H     -3.29480308      0.99380865      0.84310440      0.94809118
    H     -4.51076062      1.61483674     -0.31968234      0.95274878
    H     -0.52848569      2.37221933      0.63920659      0.89922600
    H      0.95432129      3.27160639      0.94191751      0.90597040
    H     -0.13953799      3.78897708     -0.33627592      0.90385003
    H      2.07035836      3.78822182     -1.62686031      0.91049239
    H      3.51405618      2.48590640     -3.15687004      0.90889090
    H      3.37208548      0.00685542     -3.16998075      0.91315274
    H      1.50513395     -1.37096744     -3.66768434      0.64834624
    H     -1.06568233     -1.41402715     -2.61678297      0.88857057
    H     -1.88354000     -0.61321884     -4.84085985      0.87899405
   35
Geometry Step: 11
    C     -3.63768676      1.88281582      0.29342700      3.94178429
    O     -2.60433967      2.38408726     -0.55813373      6.34496383
    C     -2.36307567      1.59479573     -1.66715718      3.72943838
    C     -1.67197570      0.36720216     -1.56581602      3.96203049
    N     -1.21056915     -0.13943162     -0.26775263      5.06964780
    N      0.01056904     -0.01592240      0.02074921      5.04221759
    C      0.91315798      0.68293448     -0.88147667      3.87165869
    C      1.05035135      2.08508123     -0.81605664      3.97405619
    C      0.27833776      2.92188993      0.16407536      4.25216362
    C      1.97783430      2.71110877     -1.66076360      4.09064071
    C      2.79377896      1.98418479     -2.52566134      4.08320291
    C      2.70011751      0.59533265     -2.54449863      4.10817325
    C      1.77259619     -0.06238640     -1.71599979      4.14320578
    C      1.72115905     -1.56914290     -1.74767211      3.33538743
    O      1.78494430     -2.28719314     -0.77294867      6.49300009
    O      1.61188871     -2.08355081     -3.01677481      6.49421299
    C     -1.53694732     -0.43685200     -2.70555325      4.11771551
    C     -2.00189284     -0.00298285     -3.95494502      4.21426063
    C     -2.61051579      1.25301024     -4.05544985      3.62122885
    F     -3.03231665      1.68610393     -5.24443723      7.23861807
    C     -2.81077803      2.06791717     -2.92037673      4.09503042
    C     -3.46824245      3.34774549     -3.03916647      3.80748087
    N     -3.98800929      4.37060760     -3.15332831      5.27639828
    H     -3.90978056      2.67714256      0.99248678      0.92973247
    H     -3.29553259      0.99134072      0.84379123      0.94853861
    H     -4.51183598      1.61375854     -0.31717906      0.95346032
    H     -0.52698354      2.36965128      0.63845522      0.89919671
    H      0.95291639      3.27552114      0.94426639      0.90667404
    H     -0.14064659      3.79346888     -0.33333325      0.90422680
    H      2.07007912      3.79363005     -1.62618235      0.91163881
    H      3.51544840      2.48821470     -3.15880595      0.90882106
    H      3.37069795      0.00555043     -3.17092012      0.91434852
    H      1.50837991     -1.37523986     -3.66476993      0.64833012
    H     -1.06404973     -1.41485701     -2.61710795      0.88891097
    H     -1.88351088     -0.61721387     -4.84505008      0.87960489
   35
Geometry Step: 12
    C     -3.63880257      1.88667287      0.29996809      3.94094107
    O     -2.61020826      2.38346088     -0.56213574      6.34553073
    C     -2.36388465      1.59682972     -1.67049763      3.72764592
    C     -1.66888131      0.36668644     -1.56669196      3.96318380