   31
Geometry Step: 0
    C     -3.57243443     -0.72332497      0.82361230      3.95123332
    O     -2.61087495     -0.62520367     -0.21723131      6.29192971
    C     -2.16051396      0.59356123     -0.64906476      3.81176765
    C     -2.41485796      1.83806904     -0.02767606      3.70174014
    F     -3.12496767      1.90391888      1.12540543      7.27155110
    C     -1.93700259      3.03748683     -0.55689207      4.17269108
    C     -1.20039879      3.02253843     -1.74650760      4.09998950
    C     -0.94860675      1.81468780     -2.39544023      4.13440340
    C     -1.38056380      0.59942549     -1.83487438      3.95266229
    N     -1.18255712     -0.61563840     -2.60182316      5.05447896
    N     -0.57763808     -1.60647230     -2.10405798      5.09829399
    C      0.04177323     -1.51436346     -0.79444156      3.96057346
    C     -0.36227412     -2.42271609      0.20658133      3.61608929
    F     -1.36069527     -3.27591410     -0.06157696      7.25021304
    C      0.22244309     -2.44030225      1.47310597      4.17451490
    C      1.26711636     -1.55006661      1.74455529      4.08271063
    C      1.72106953     -0.68086820      0.75458730      4.09333575
    C      1.13739939     -0.65744045     -0.52754284      4.13172991
    C      1.76629535      0.27390873     -1.54130714      3.32739743
    O      2.35532221      1.29055287     -1.20955594      6.51969485
    O      1.71293525     -0.10859960     -2.84865027      6.48731142
    H     -3.86641689     -1.77577063      0.88211708      0.93818969
    H     -4.46071092     -0.11602287      0.60541250      0.94096300
    H     -3.15018501     -0.42090848      1.79204320      0.94112284
    H     -2.14560590      3.96716461     -0.03776543      0.88925976
    H     -0.82723244      3.95143050     -2.16471795      0.89891519
    H     -0.36710662      1.79704606     -3.31179015      0.89294661
    H     -0.13084456     -3.13933973      2.22471927      0.88925627
    H      1.73361920     -1.54722295      2.72505386      0.90245084
    H      2.54744669     -0.00360235      0.95037426      0.88378724
    H      1.21162852     -0.92761617     -2.98151488      0.63879676
