   35
Geometry Step: 0
    C      6.05510497      3.27811386      0.48263221      3.95832628
    O      4.95668700      2.63924000     -0.15905112      6.28681115
    C      4.15997621      1.81731182      0.59566477      3.69030659
    C      4.32218463      1.60868642      1.96790857      4.20818522
    C      3.47044427      0.73647896      2.65702963      4.05611622
    C      3.70743282      0.53213856      4.10649277      3.31422401
    O      4.55883155      1.09682234      4.76739381      6.57230307
    O      2.87127667     -0.36588635      4.64751334      6.48707790
    C      2.43791592      0.08755479      1.97415282      4.16516214
    C      2.22747139      0.31792012      0.60771503      3.84289135
    N      1.19886412     -0.37933893     -0.06422576      5.04878132
    N      0.00000000      0.00000000      0.00000000      5.04178618
    C     -1.02704074     -0.69614518     -0.67088050      3.83540506
    C     -1.56166548     -0.17733540     -1.86369746      4.15035731
    C     -2.55414109     -0.86117735     -2.57168589      4.05768962
    C     -3.00530247     -2.09442203     -2.11078046      4.19466503
    C     -2.44292272     -2.64598205     -0.96371979      3.60230475
    F     -2.88681829     -3.84033326     -0.54542483      7.24945079
    C     -1.44856158     -1.96716921     -0.25991535      4.18761466
    C     -0.84370854     -2.61537649      0.90412239      3.31667054
    O     -0.84038374     -2.20470328      2.04686423      6.56206744
    O     -0.23188785     -3.75733859      0.54527954      6.47937846
    C      3.11890819      1.15802087     -0.08670601      4.06010170
    C      2.96060277      1.34251346     -1.50222173      3.81388693
    N      2.80465421      1.50762134     -2.64129064      5.29884284
    H      6.75629483      2.54252498      0.89012523      0.94333910
    H      6.58784449      3.86392157     -0.27255157      0.93344236
    H      5.70886180      3.96943969      1.25772875      0.94295730
    H      5.11307475      2.10243531      2.52701765      0.88410610
    H      3.12113726     -0.40965766      5.59406496      0.62519138
    H      1.78928584     -0.61252649      2.49719241      0.87661160
    H     -1.18564554      0.76542058     -2.25766182      0.89647058
    H     -2.96141867     -0.43536331     -3.48634681      0.90099457
    H     -3.77575144     -2.64047590     -2.64762040      0.88893241
    H      0.15055864     -4.10520090      1.37799129      0.62754802
   35
Geometry Step: 1
    C      6.05539594      3.28512860      0.46275828      3.96157137
    O      4.94599718      2.62095198     -0.13480902      6.24298815
    C      4.18534044      1.83986621      0.57428589      3.68616298
    C      4.34682513      1.62662441      1.97968455      4.21550653
    C      3.48661733      0.74872934      2.63620255      4.02928293
    C      3.67420786      0.52277841      4.04231831      3.34687931
    O      4.59690768      1.11974374      4.80196341      6.61226349
    O      2.87298277     -0.38536143      4.72023798      6.49472299
    C      2.41723623      0.06354688      1.99277112      4.17083387
    C      2.22416870      0.34214896      0.64526904      3.83697006
    N      1.22636813     -0.43738236     -0.11259913      5.08669417
    N     -0.02981558      0.07221586      0.04327284      5.07210338
    C     -1.01351878     -0.72050932     -0.74515506      3.83790756
    C     -1.57264585     -0.14245691     -1.87728350      4.13508087
    C     -2.53745279     -0.85026284     -2.55963825      4.05493517
    C     -3.03519186     -2.10943682     -2.13390649      4.20274260
    C     -2.46787117     -2.64216020     -0.99273232      3.60383300
    F     -2.87502976     -3.83306443     -0.53980135      7.24784804
    C     -1.47555707     -1.96097572     -0.24190678      4.16930716
    C     -0.83628599     -2.62384132      0.88102198      3.32969085
    O     -0.82854662     -2.19428248      2.10209241      6.58503223
    O     -0.19690512     -3.80172744      0.60909681      6.47910511
    C      3.10978651      1.15012024     -0.12338886      4.07940384
    C      2.94867153      1.35862377     -1.54698236      3.80382056
    N      2.81075510      1.49928042     -2.60705146      5.28777888
    H      6.75647997      2.53905722      0.89988401      0.94262395
    H      6.58337689      3.86158660     -0.27566255      0.92229060
    H      5.70863624      3.96800636      1.26832164      0.94147875
    H      5.11065265      2.10109218      2.52746928      0.86907191
    H      3.10190662     -0.42236987      5.57946321      0.61182086
    H      1.78905154     -0.60544743      2.49857317      0.85689582
    H     -1.18639783      0.76356133     -2.25257700      0.88448882
    H     -2.95879274     -0.43711768     -3.48293853      0.90889221
    H     -3.77565209     -2.63988283     -2.64717404      0.87414354
    H      0.15046292     -4.11905115      1.35202948      0.61582845
   35
Geometry Step: 2
    C      6.05516912      3.27966042      0.47825053      3.95883765
    O      4.95433018      2.63520798     -0.15370638      6.27794109
    C      4.16556835      1.82228446      0.59095130      3.68957239
    C      4.32761721      1.61264127      1.97050486      4.20878437
    C      3.47401000      0.73917984      2.65243781      4.04951770
    C      3.70010760      0.53007490      4.09234401      3.32021559
    O      4.56722633      1.10187590      4.77501548      6.58447031
    O      2.87165282     -0.37018008      4.66354719      6.48856980
    C      2.43335660      0.08226168      1.97825766      4.16639089
    C      2.22674324      0.32326194      0.61599469      3.84049930
    N      1.20492802     -0.39213596     -0.07489080      5.05973072
    N     -0.00657354      0.01592167      0.00954051      5.05076884
    C     -1.02405951     -0.70151683     -0.68725607      3.83450422
    C     -1.56408636     -0.16964562     -1.86669282      4.14686884
    C     -2.55046177     -0.85877099     -2.56902970      4.05742097
    C     -3.01189228     -2.09773239     -2.11587913      4.19624874
    C     -2.44842319     -2.64513944     -0.97011628      3.60293624
    F     -2.88421924     -3.83873068     -0.54418500      7.24902574
    C     -1.45451337     -1.96580371     -0.25594494      4.18306260
    C     -0.84207207     -2.61724276      0.89902936      3.31868166
    O     -0.83777397     -2.20240577      2.05904057      6.56880005
    O     -0.22417509     -3.76712515      0.55934955      6.47947400
    C      3.11689710      1.15627899     -0.09479360      4.06354490
    C      2.95797225      1.34606536     -1.51209025      3.81121267
    N      2.80599930      1.50578239     -2.63374181      5.29593242
    H      6.75633565      2.54176043      0.89227678      0.94333458
    H      6.58685950      3.86340677     -0.27323746      0.93102511
    H      5.70881207      3.96912368      1.26006420      0.94277505
    H      5.11254074      2.10213919      2.52711722      0.88040170
    H      3.11689741     -0.41246037      5.59084566      0.62149865
    H      1.78923418     -0.61096574      2.49749683      0.87180554
    H     -1.18581140      0.76501067     -2.25654075      0.89371638
    H     -2.96083972     -0.43575010     -3.48559538      0.90269638
    H     -3.77572954     -2.64034514     -2.64752199      0.88551018
    H      0.15053753     -4.10825451      1.37226740      0.62422471
   35
Geometry Step: 3
    C      6.05471824      3.28064638      0.47462308      3.95783057
    O      4.95413085      2.63223008     -0.14845478      6.27206854
    C      4.16832376      1.82480628      0.58630170      3.68716345
    C      4.33366475      1.61827741      1.96846061      4.21195496
    C      3.47656912      0.74100155      2.64538349      4.05013414
    C      3.70323589      0.53335223      4.09145110      3.32097353
    O      4.56347830      1.09897878      4.77259160      6.57554101
    O      2.87230185     -0.37236530      4.67297380      6.49794645
    C      2.43066118      0.07891601      1.98300876      4.16301514
    C      2.22443420      0.32907465      0.62310238      3.84641777
    N      1.19495164     -0.40225447     -0.08798943      5.06347747
    N      0.00151287      0.03011777      0.01993058      5.05370217
    C     -1.01643472     -0.70823488     -0.70698273      3.84068424
    C     -1.56828559     -0.15989272     -1.87090155      4.14428116
    C     -2.54905216     -0.85776640     -2.56809257      4.05667751
    C     -3.01824714     -2.09758182     -2.12322543      4.19649193
    C     -2.45568361     -2.64405837     -0.97798684      3.60135186
    F     -2.88033403     -3.83636152     -0.54233155      7.24913154
    C     -1.46492005     -1.96214920     -0.25475128      4.18558696
    C     -0.83633717     -2.61877141      0.91014784      3.31820521
    O     -0.83320760     -2.20441029      2.06203205      6.55884773
    O     -0.21907344     -3.77463780      0.57114473      6.48390627
    C      3.11699784      1.15571148     -0.10284825      4.06296753
    C      2.95660435      1.34733983     -1.50065292      3.80852178
    N      2.80477536      1.50667481     -2.64784227      5.30199714
    H      6.75556615      2.54156411      0.89526435      0.94415125
    H      6.58548797      3.86318553     -0.27596574      0.92957423
    H      5.70918971      3.96786239      1.26294289      0.94351979
    H      5.11390690      2.10300298      2.52906999      0.87894487
    H      3.11363320     -0.41699729      5.59714167      0.62115006
    H      1.78709660     -0.61052174      2.50000056      0.86924525
    H     -1.18534886      0.76715689     -2.25577035      0.89157047
    H     -2.95954380     -0.43637179     -3.48371531      0.90462882
    H     -3.77837207     -2.64167513     -2.64962933      0.88428002
    H      0.15576369     -4.11811676      1.37467841      0.62405917
   35
Geometry Step: 4
    C      6.05479743      3.28047322      0.47526017      3.95799768
    O      4.95416586      2.63275309     -0.14937712      6.27312453
    C      4.16783982      1.82436337      0.58711832      3.68759652
    C      4.33260261      1.61728753      1.96881965      4.21137872
    C      3.47611966      0.74068160      2.64662245      4.05003869
    C      3.70268646      0.53277663      4.09160792      3.32082391
    O      4.56413657      1.09948760      4.77301731      6.57712259
    O      2.87218786     -0.37198151      4.67131819      6.49629976
    C      2.43113458      0.07950361      1.98217432      4.16359756
    C      2.22483974      0.32805376      0.62185405      3.84536519
    N      1.19670380     -0.40047734     -0.08568890      5.06288095
    N      0.00009264      0.02762450      0.01810576      5.05324608
    C     -1.01777387     -0.70705498     -0.70351811      3.83955242
    C     -1.56754807     -0.16160564     -1.87016236      4.14473262
    C     -2.54929973     -0.85794284     -2.56825716      4.05682161
    C     -3.01713103     -2.09760826     -2.12193519      4.19643817
    C     -2.45440845     -2.64424824     -0.97660452      3.60163626
    F     -2.88101640     -3.83677761     -0.54265708      7.24911256
    C     -1.46309231     -1.96279105     -0.25496093      4.18512625
    C     -0.83734440     -2.61850293      0.90819509      3.31827507
    O     -0.83400960     -2.20405824      2.06150666      6.56059295
    O     -0.21996945     -3.77331834      0.56907313      6.48312144
    C      3.11698015      1.15581115     -0.10143360      4.06308664
    C      2.95684459      1.34711599     -1.50266167      3.80893883
    N      2.80499032      1.50651807     -2.64536579      5.30092306
    H      6.75570130      2.54159859      0.89473964      0.94401422
    H      6.58572885      3.86322439     -0.27548657      0.92983067
    H      5.70912339      3.96808391      1.26243730      0.94339544
    H      5.11366696      2.10285127      2.52872702      0.87919988
    H      3.11420650     -0.41620046      5.59603589      0.62121583
    H      1.78747203     -0.61059972      2.49956083      0.86969105
    H     -1.18543010      0.76677994     -2.25590566      0.89194395
    H     -2.95977141     -0.43626260     -3.48404551      0.90429219
    H     -3.77790796     -2.64144155     -2.64925922      0.88449635
    H      0.15484581     -4.11638464      1.37425497      0.62409037
   35
Geometry Step: 5
    C      6.05420868      3.28030244      0.47487013      3.95595334
    O      4.95682807      2.63287471     -0.14800404      6.27577590
    C      4.16715910      1.82344721      0.58550653      3.68586336
    C      4.33510435      1.62076788      1.96321075      4.21105717
    C      3.47834458      0.74160745      2.64261464      4.05430356
    C      3.70653235      0.53474754      4.09606561      3.31829521
    O      4.55843497      1.09569051      4.76792451      6.56836898
    O      2.87277394     -0.37168421      4.67198247      6.50056300
    C      2.43118749      0.07998553      1.98370101      4.16034522
    C      2.22116924      0.33034645      0.62281863      3.84987089
    N      1.18732020     -0.40403208     -0.09409953      5.06323089
    N      0.00750118      0.03473822      0.02306864      5.05275115
    C     -1.00864958     -0.71116904     -0.71679120      3.84424661
    C     -1.57121438     -0.15546808     -1.87289040      4.14463211
    C     -2.55134078     -0.85771050     -2.57063301      4.05651016
    C     -3.02066632     -2.09466900     -2.12820674      4.19517129
    C     -2.45955942     -2.64264148     -0.98156319      3.60042528
    F     -2.87783833     -3.83484837     -0.54111446      7.24920675
    C     -1.47126911     -1.95904353     -0.25479624      4.18887401
    C     -0.83247935     -2.62007464      0.91856216      3.31706823
    O     -0.82874180     -2.20636832      2.06399798      6.55357676
    O     -0.21892165     -3.77611436      0.57463068      6.48365204
    C      3.11836838      1.15475178     -0.09805408      4.06177715
    C      2.95177178      1.35135955     -1.51584458      3.81121927
    N      2.80612865      1.50508326     -2.64220956      5.29590583
    H      6.75423308      2.54237783      0.89730759      0.94513552
    H      6.58436302      3.86337755     -0.27950564      0.93076203
    H      5.70994013      3.96616048      1.26449555      0.94455829
    H      5.11677517      2.10484986      2.53183139      0.88029687
    H      3.11264828     -0.42095043      5.60861608      0.62286365
    H      1.78389487     -0.61150775      2.50381270      0.87036556
    H     -1.18432722      0.77197421     -2.25644920      0.89194654
    H     -2.95856989     -0.43660111     -3.48221046      0.90452541
    H     -3.78270924     -2.64377232     -2.65353015      0.88533939
    H      0.16376371     -4.13005496      1.38399471      0.62556259
   35
Geometry Step: 6
    C      6.05432775      3.28033698      0.47494902      3.95636820
    O      4.95628963      2.63285011     -0.14828175      6.27524936
    C      4.16729678      1.82363250      0.58583252      3.68620649
    C      4.33459837      1.62006397      1.96434516      4.21112372
    C      3.47789459      0.74142019      2.64342522      4.05343350
    C      3.70575451      0.53434892      4.09516403      3.31877740
    O      4.55958813      1.09645848      4.76895454      6.57018840
    O      2.87265540     -0.37174434      4.67184812      6.49969923
    C      2.43117679      0.07988806      1.98339224      4.16100270
    C      2.22191161      0.32988275      0.62262354      3.84894392
    N      1.18921805     -0.40331313     -0.09239846      5.06318670
    N      0.00600278      0.03329945      0.02206488      5.05286755
    C     -1.01049499     -0.71033696     -0.71410669      3.84326707
    C     -1.57047286     -0.15670941     -1.87233865      4.14466631
    C     -2.55092797     -0.85775749     -2.57015249      4.05657111
    C     -3.01995130     -2.09526347     -2.12693831      4.19543461
    C     -2.45851763     -2.64296645     -0.98056029      3.60067128
    F     -2.87848110     -3.83523856     -0.54142646      7.24918864
    C     -1.46961533     -1.95980147     -0.25482955      4.18811060
    C     -0.83346332     -2.61975675      0.91646539      3.31729942
    O     -0.82980723     -2.20590110      2.06349410      6.55500773
    O     -0.21913357     -3.77554886      0.57350666      6.48354441
    C      3.11808761      1.15496604     -0.09873760      4.06207410
    C      2.95279777      1.35050128     -1.51317831      3.81071368
    N      2.80589842      1.50537346     -2.64284792      5.29691005
    H      6.75453003      2.54222023      0.89678822      0.94490848
    H      6.58463926      3.86334657     -0.27869277      0.93057463
    H      5.70977494      3.96654950      1.26407927      0.94432275
    H      5.11614653      2.10444564      2.53120352      0.88007514
    H      3.11296343     -0.41998974      5.60607171      0.62252288
    H      1.78461836     -0.61132410      2.50295275      0.87022858
    H     -1.18455028      0.77092366     -2.25633927      0.89194783
    H     -2.95881290     -0.43653265     -3.48258160      0.90448144
    H     -3.78173817     -2.64330092     -2.65266635      0.88517067
    H      0.16196005     -4.12729011      1.38202483      0.62526140
   35
Geometry Step: 7
    C      6.05435887      3.27988216      0.47669705      3.95556428
    O      4.95989006      2.63463767     -0.15077520      6.27807971
    C      4.16594913      1.82194800      0.58516300      3.68736757
    C      4.33454973      1.62070967      1.96055449      4.20731912
    C      3.48066886      0.74211643      2.64327067      4.05321972
    C      3.70233226      0.53095418      4.09404788      3.31805871
    O      4.56154170      1.09806234      4.76895439      6.57618451
    O      2.87356718     -0.37135901      4.67348949      6.49452307
    C      2.43168527      0.08225542      1.98202576      4.16144836
    C      2.21845637      0.32889467      0.61851534      3.84757248
    N      1.19100215     -0.40249098     -0.09611578      5.06339812
    N      0.00292793      0.03538700      0.02110678      5.05212620
    C     -1.00289377     -0.71171592     -0.72088669      3.84246808
    C     -1.57274310     -0.15468626     -1.87362472      4.14511034
    C     -2.55435188     -0.85623039     -2.57451408      4.05662494
    C     -3.02254368     -2.09292706     -2.13186589      4.19415756
    C     -2.46082981     -2.63990594     -0.98210259      3.60114340
    F     -2.87646869     -3.83374975     -0.54054114      7.24914075
    C     -1.47303035     -1.95669244     -0.25363976      4.18792118
    C     -0.83206261     -2.62104795      0.91730607      3.31721209
    O     -0.82359772     -2.20629961      2.07201810      6.55940725
    O     -0.21787933     -3.77807381      0.57990470      6.48038523
    C      3.11697392      1.15360875     -0.09628898      4.05950014
    C      2.94920702      1.35254396     -1.51297098      3.81262626
    N      2.80560847      1.50549019     -2.65028780      5.29628221
    H      6.75277652      2.54365900      0.89913013      0.94492656
    H      6.58293538      3.86339633     -0.28311034      0.93163167
    H      5.71089617      3.96427115      1.26559028      0.94443120
    H      5.11959563      2.10682354      2.53400631      0.88053290
    H      3.11087568     -0.42473005      5.61710628      0.62286393
    H      1.78094511     -0.61210976      2.50805974      0.87132426
    H     -1.18329427      0.77856741     -2.25813581      0.89291952
    H     -2.95855910     -0.43590836     -3.48230751      0.90301797
    H     -3.78764672     -2.64569724     -2.65865387      0.88576615
    H      0.17132175     -4.14185107      1.39198395      0.62574454
   35
Geometry Step: 8
    C      6.05440922      3.27914624      0.47952544      3.95433919
    O      4.96571568      2.63753000     -0.15480969      6.28248949
    C      4.16376858      1.81922242      0.58407969      3.68928929
    C      4.33447104      1.62175443      1.95442105      4.20131171
    C      3.48515773      0.74324295      2.64302059      4.05277138
    C      3.69679494      0.52546138      4.09224191      3.31703336
    O      4.56470266      1.10065744      4.76895414      6.58566550
    O      2.87504246     -0.37073552      4.67614528      6.48628747
    C      2.43250800      0.08608590      1.97981475      4.16216635
    C      2.21286567      0.32729593      0.61186812      3.84533412
    N      1.19388889     -0.40116073     -0.10213052      5.06374852
    N     -0.00204728      0.03876473      0.01955655      5.05098046
    C     -0.99059474     -0.71394713     -0.73185697      3.84143250
    C     -1.57641643     -0.15141272     -1.87570563      4.14567387
    C     -2.55989187     -0.85375950     -2.58157128      4.05672374
    C     -3.02673824     -2.08914666     -2.13983888      4.19197621
    C     -2.46457100     -2.63495392     -0.98459810      3.60191466
    F     -2.87321253     -3.83134080     -0.53910866      7.24906881
    C     -1.47855597     -1.95166191     -0.25171463      4.18749150
    C     -0.82979621     -2.62313714      0.91866631      3.31723179
    O     -0.81355054     -2.20694442      2.08581023      6.56627652
    O     -0.21584992     -3.78215926      0.59025694      6.47544515
    C      3.11517194      1.15141260     -0.09232702      4.05541110
    C      2.94339707      1.35584908     -1.51263551      3.81578830
    N      2.80513931      1.50567907     -2.66232579      5.29524361
    H      6.74993928      2.54598698      0.90291941      0.94493668
    H      6.58017845      3.86347685     -0.29025813      0.93330327
    H      5.71271036      3.96058471      1.26803516      0.94459041
    H      5.12517640      2.11067107      2.53854132      0.88126239
    H      3.10749764     -0.43240004      5.63496059      0.62337023
    H      1.77500166     -0.61338099      2.51632303      0.87310999
    H     -1.18126200      0.79093526     -2.26104268      0.89448991
    H     -2.95814844     -0.43489823     -3.48186401      0.90068165
    H     -3.79720696     -2.64957458     -2.66834188      0.88672732
    H      0.18646929     -4.16541121      1.40809816      0.62643354
   35
Geometry Step: 9
    C      6.05436246      3.27982972      0.47689859      3.95547638
    O      4.96030517      2.63484376     -0.15106268      6.27839693
    C      4.16579375      1.82175379      0.58508580      3.68750540
    C      4.33454413      1.62078412      1.96011745      4.20687776
    C      3.48098872      0.74219670      2.64325285      4.05317977
    C      3.70193769      0.53056279      4.09391920      3.31797616
    O      4.56176694      1.09824726      4.76895437      6.57687105
    O      2.87367230     -0.37131458      4.67367873      6.49392537
    C      2.43174389      0.08252837      1.98186821      4.16150501
    C      2.21805800      0.32878075      0.61804169      3.84741674
    N      1.19120785     -0.40239620     -0.09654436      5.06342582
    N      0.00257342      0.03562768      0.02099632      5.05204763
    C     -1.00201739     -0.71187491     -0.72166839      3.84239521
    C     -1.57300485     -0.15445300     -1.87377300      4.14516184
    C     -2.55474663     -0.85605433     -2.57501694      4.05663012
    C     -3.02284256     -2.09265768     -2.13243401      4.19399961
    C     -2.46109639     -2.63955308     -0.98228041      3.60119760
    F     -2.87623667     -3.83357810     -0.54043907      7.24913221
    C     -1.47342408     -1.95633398     -0.25350258      4.18789246
    C     -0.83190112     -2.62119681      0.91740299      3.31721637
    O     -0.82288181     -2.20634556      2.07300087      6.55989823
    O     -0.21773472     -3.77836492      0.58064235      6.48002822
    C      3.11684552      1.15345226     -0.09600667      4.05920257
    C      2.94879303      1.35277947     -1.51294707      3.81284779
    N      2.80557504      1.50550365     -2.65114558      5.29621969
    H      6.75257435      2.54382488      0.89940013      0.94492726
    H      6.58273894      3.86340207     -0.28361966      0.93175561
    H      5.71102544      3.96400847      1.26576450      0.94444271
    H      5.11999329      2.10709770      2.53432946      0.88058480
    H      3.11063498     -0.42527658      5.61837850      0.62290133
    H      1.78052160     -0.61220034      2.50864855      0.87145322
    H     -1.18314946      0.77944869     -2.25834294      0.89303293
    H     -2.95852984     -0.43583638     -3.48227590      0.90284524
    H     -3.78832794     -2.64597352     -2.65934419      0.88583463
    H      0.17240109     -4.14352986      1.39313218      0.62579633
   35
Geometry Step: 10
    C      6.05605525      3.28097359      0.47728145      3.95706363
    O      4.96146189      2.63462973     -0.15483796      6.27719815
    C      4.16694723      1.82259392      0.58173348      3.68797398
    C      4.33695121      1.62124765      1.96254785      4.20842666
    C      3.48166876      0.74119209      2.64340372      4.05222777
    C      3.70148256      0.52864800      4.09454584      3.31785237
    O      4.56284329      1.09949761      4.76740558      6.57650847
    O      2.87537634     -0.37264475      4.68405989      6.49619050
    C      2.42959465      0.08390635      1.97962460      4.16369125
    C      2.21593409      0.32521884      0.61459995      3.84445184
    N      1.19285465     -0.39502846     -0.09767328      5.06074224
    N      0.00032927      0.03104470      0.01382761      5.05071606
    C     -0.99794832     -0.71210509     -0.72586495      3.84082822
    C     -1.57367230     -0.15244656     -1.87675083      4.14596821
    C     -2.55703827     -0.85273825     -2.57811720      4.05622262
    C     -3.02738569     -2.09340274     -2.13737906      4.19569085
    C     -2.46235436     -2.63413317     -0.98253343      3.60066699
    F     -2.87457365     -3.83090342     -0.54036249      7.24981800
    C     -1.47261219     -1.95371371     -0.25126615      4.18936355
    C     -0.83171366     -2.61964774      0.92409501      3.31614094
    O     -0.81428013     -2.20888747      2.07675239      6.55442255
    O     -0.21260870     -3.78498363      0.59609668      6.48758534
    C      3.11302655      1.15268790     -0.09954931      4.06213662
    C      2.94370524      1.35574495     -1.51766087      3.81289515
    N      2.80601513      1.50467490     -2.65252036      5.29599386
    H      6.75105083      2.54523474      0.90280336      0.94399333
    H      6.57974816      3.86249275     -0.28766733      0.93082054
    H      5.71224361      3.96151383      1.26808734      0.94359339
    H      5.12202142      2.10888370      2.53525771      0.87988657
    H      3.10610884     -0.43056671      5.62415595      0.62215923
    H      1.77830723     -0.61012992      2.51374861      0.87221213
    H     -1.18298071      0.78806656     -2.26044568      0.89377589
    H     -2.96034314     -0.43282511     -3.48594923      0.90273367
    H     -3.79473941     -2.64751078     -2.66720443      0.88491556
    H      0.18068846     -4.15885202      1.39886481      0.62513382
   35
Geometry Step: 11
    C      6.05879424      3.28282440      0.47790094      3.95966032
    O      4.96333351      2.63428343     -0.16094649      6.27524163
    C      4.16881361      1.82395327      0.57630930      3.68869266
    C      4.34084596      1.62199767      1.96648032      4.21094523
    C      3.48276908      0.73956660      2.64364783      4.05059247
    C      3.70074613      0.52554982      4.09555977      3.31765716
    O      4.56458487      1.10152072      4.76489960      6.57585603
    O      2.87813353     -0.37479701      4.70085698      6.50000254
    C      2.42611711      0.08613598      1.97599435      4.16732983
    C      2.21249754      0.31945555      0.60903110      3.83979379
    N      1.19551923     -0.38310721     -0.09949992      5.05615471
    N     -0.00330185      0.02362926      0.00222839      5.04817132
    C     -0.99136441     -0.71247753     -0.73265513      3.83842857
    C     -1.57475225     -0.14920008     -1.88156906      4.14735839
    C     -2.56074623     -0.84737273     -2.58313352      4.05554010
    C     -3.03473662     -2.09460827     -2.14538034      4.19854356
    C     -2.46438979     -2.62536357     -0.98294282      3.59980112
    F     -2.87188284     -3.82657571     -0.54023859      7.25090630
    C     -1.47129853     -1.94947401     -0.24764752      4.19175798
    C     -0.83141034     -2.61714130      0.93492292      3.31446963
    O     -0.80036233     -2.21300037      2.08282248      6.54550858
    O     -0.20431461     -3.79569293      0.62110231      6.50024683
    C      3.10684733      1.15145114     -0.10528142      4.06693311
    C      2.93547302      1.36054321     -1.52528797      3.81305009
    N      2.80672722      1.50333396     -2.65474481      5.29556789
    H      6.74858572      2.54751593      0.90830990      0.94248609
    H      6.57490899      3.86102143     -0.29421658      0.92928244
    H      5.71421464      3.95747740      1.27184578      0.94222446
    H      5.12530300      2.11177352      2.53675966      0.87875621
    H      3.09878538     -0.43912632      5.63350405      0.62091122
    H      1.77472430     -0.60677992      2.52200069      0.87343107
    H     -1.18270767      0.80201057     -2.26384798      0.89498813
    H     -2.96327712     -0.42795277     -3.49189279      0.90254029
    H     -3.80511338     -2.64999811     -2.67992257      0.88339593
    H      0.19409771     -4.18364378      1.40814041      0.62377432
   35
Geometry Step: 12
    C      6.05677267      3.28145837      0.47744371      3.95773678
    O      4.96195213      2.63453903     -0.15643797      6.27668433
    C      4.16743609      1.82294997      0.58031273      3.68816062
    C      4.33797136      1.62144410      1.96357788      4.20907461