   47
Geometry Step: 0
    C     -0.32396525      2.20704170     -2.53521861      4.25509630
    C     -1.29304402      2.50583703     -1.42089425      3.99648796
    C     -1.86521425      3.78088873     -1.38500950      4.10782941
    C     -2.84694912      4.08579565     -0.44962273      4.12414080
    C     -3.31512063      3.12184846      0.46156248      3.98152389
    C     -4.41694711      3.51929762      1.36135198      3.93987410
    C     -4.20673046      4.47154039      2.37314597      4.10808977
    C     -5.24706531      4.85865445      3.22110458      4.07599680
    C     -6.51478999      4.30244646      3.06704253      4.08406131
    C     -6.74379020      3.36204436      2.06520476      4.07366284
    C     -5.70349871      2.97639398      1.21655320      4.09725232
    C     -2.74264486      1.81552080      0.45004722      4.03799308
    C     -3.24990101      0.75502390      1.36030630      3.94081857
    C     -3.81746322     -0.42388893      0.84653464      4.09988913
    C     -4.30824344     -1.41975595      1.69519097      4.07529964
    C     -4.24663302     -1.25226719      3.07587987      4.08225786
    C     -3.69418140     -0.09091200      3.60828057      4.07578748
    C     -3.20024115      0.90169782      2.75777733      4.10199505
    C     -1.69201591      1.52930523     -0.47644440      3.88780944
    N     -1.11458502      0.23484689     -0.53928492      5.06405295
    N      0.00000000      0.00000000      0.00000000      5.06285484
    C      0.69782421      1.01935694      0.67799686      3.92905214
    C      0.45306833      1.23807749      2.03959497      4.12257418
    C      1.16154313      2.21072635      2.75137826      4.10367186
    C      2.14886742      2.95976280      2.11349785      4.09228472
    C      2.43732367      2.72231807      0.77101815      4.17849296
    C      1.72475789      1.74947559      0.07031703      3.64059972
    F      2.06108867      1.51667492     -1.20723361      7.26498918
    H      0.25384310      1.29454033     -2.37189750      0.89778684
    H     -0.87222082      2.09265637     -3.47617058      0.91297750
    H      0.39447968      3.02703561     -2.64249533      0.91273840
    H     -1.56312860      4.53914632     -2.10467090      0.91367811
    H     -3.28645869      5.08261688     -0.45833986      0.91510732
    H     -3.22124236      4.91205946      2.50938553      0.92261281
    H     -5.06654730      5.59289261      4.00160663      0.92323033
    H     -7.32464566      4.60099888      3.72736923      0.92404937
    H     -7.73126904      2.92503931      1.94303894      0.92262238
    H     -5.90012668      2.24062451      0.43940565      0.92029164
    H     -3.88037590     -0.57409708     -0.22961251      0.92166388
    H     -4.73903809     -2.32444578      1.27453233      0.92243730
    H     -4.63136182     -2.02517651      3.73565036      0.92385122
    H     -3.64943534      0.04740013      4.68503324      0.92274611
    H     -2.77102656      1.80029365      3.19585057      0.92165468
    H     -0.29986841      0.63858327      2.54661625      0.90183191
    H      0.94547100      2.37424282      3.80442794      0.91061312
    H      2.70381424      3.71422834      2.66552168      0.91032304
    H      3.21988888      3.27864813      0.26482661      0.89534576
   47
Geometry Step: 1
    C     -0.31264964      2.19973102     -2.53507616      4.25210004
    C     -1.28412167      2.49716352     -1.43098722      3.98193125
    C     -1.87619512      3.78064577     -1.37858053      4.11673019
    C     -2.84937313      4.09193001     -0.44342190      4.11286765
    C     -3.27291156      3.10258590      0.42896140      3.99280621
    C     -4.44480682      3.51803906      1.39446520      3.95834687
    C     -4.20680311      4.47868103      2.37617362      4.10119404
    C     -5.23913742      4.85708071      3.21515731      4.07199946
    C     -6.52351622      4.30473599      3.07328441      4.09623811
    C     -6.73708354      3.35910464      2.05754527      4.06878436
    C     -5.71105453      2.96865177      1.21923385      4.08963631
    C     -2.73264027      1.84165319      0.41740920      4.01512255
    C     -3.25831840      0.73560844      1.38179464      3.95161021
    C     -3.81579509     -0.43371485      0.84081813      4.09282860
    C     -4.30407675     -1.41119333      1.68464718      4.06984686
    C     -4.25144220     -1.26164295      3.08339852      4.09576584
    C     -3.68899937     -0.08027596      3.60157997      4.07131751
    C     -3.20110795      0.90680594      2.76557465      4.09486369
    C     -1.72752222      1.60898920     -0.46524327      3.91078809
    N     -1.11955658      0.17833355     -0.53716740      5.08178331
    N     -0.01739158     -0.05910137     -0.04635452      5.06026332
    C      0.70756089      1.06291011      0.71831733      3.97141569
    C      0.44711044      1.24080716      2.06051604      4.09668231
    C      1.15932875      2.20370101      2.75241633      4.10135326
    C      2.15000446      2.96564026      2.12423519      4.09640122
    C      2.44898735      2.72704804      0.76093636      4.18251316
    C      1.74719038      1.76395383      0.08054227      3.62450244
    F      2.07027813      1.50959614     -1.21486933      7.27202494
    H      0.23747434      1.30042534     -2.37491059      0.88920031
    H     -0.86569263      2.09657560     -3.47521868      0.91450647
    H      0.38480158      3.02056652     -2.64905773      0.91061033
    H     -1.56030413      4.53461569     -2.10435275      0.91953232
    H     -3.28713215      5.07827295     -0.45346976      0.90990427
    H     -3.22002114      4.91054965      2.50708962      0.92051535
    H     -5.06549492      5.59374162      4.00228967      0.92741978
    H     -7.32545586      4.60151387      3.72841678      0.91730358
    H     -7.73232002      2.92497720      1.94237422      0.92717539
    H     -5.89698375      2.24081971      0.43915916      0.91777395
    H     -3.87880770     -0.57117244     -0.22977286      0.91647618
    H     -4.73979523     -2.32481108      1.27360789      0.92655631
    H     -4.63179582     -2.02632148      3.73672745      0.91531252
    H     -3.64851599      0.04795941      4.68624985      0.92698387
    H     -2.77060801      1.80207702      3.19285605      0.91888330
    H     -0.30206232      0.64169046      2.54338802      0.89810638
    H      0.94571160      2.37341617      3.80217039      0.91437296
    H      2.70299029      3.71360675      2.66339419      0.90530597
    H      3.22025552      3.27906801      0.26390830      0.89234328
   47
Geometry Step: 2
    C     -0.32029316      2.20466927     -2.53517238      4.25426714
    C     -1.29014858      2.50302234     -1.42416957      3.99076177
    C     -1.86877771      3.78080988     -1.38292321      4.11132652
    C     -2.84773575      4.08778634     -0.44761047      4.11940399
    C     -3.30142315      3.11559747      0.45098293      3.98609887
    C     -4.42598801      3.51888920      1.37209772      3.94577738
    C     -4.20675403      4.47385764      2.37412849      4.10583892
    C     -5.24449259      4.85814375      3.21917460      4.07478552
    C     -6.51762179      4.30318945      3.06906812      4.08792135
    C     -6.74161379      3.36109038      2.06271914      4.07216733
    C     -5.70595069      2.97388151      1.21742311      4.09473724
    C     -2.73939821      1.82400115      0.43945569      4.02938750
    C     -3.25263258      0.74872329      1.36727959      3.94469674
    C     -3.81692188     -0.42707759      0.84467955      4.09730935
    C     -4.30689129     -1.41697725      1.69176935      4.07359865
    C     -4.24819367     -1.25530976      3.07831978      4.08656625
    C     -3.69249975     -0.08746044      3.60610612      4.07441680
    C     -3.20052244      0.90335548      2.76030768      4.09957073
    C     -1.70353825      1.55516389     -0.47280947      3.89635048
    N     -1.11619836      0.21650745     -0.53859775      5.07052767
    N     -0.00564383     -0.01917929     -0.01504274      5.06362394
    C      0.70098391      1.03349060      0.69108146      3.94242192
    C      0.45113490      1.23896331      2.04638418      4.11342125
    C      1.16082453      2.20844652      2.75171513      4.10338427
    C      2.14923640      2.96167012      2.11698228      4.09307447
    C      2.44110871      2.72385302      0.76774646      4.18007812
    C      1.73203757      1.75417400      0.07363527      3.63482225
    F      2.06407079      1.51437775     -1.20971152      7.26714410
    H      0.24853119      1.29645010     -2.37287530      0.89480555
    H     -0.87010232      2.09392822     -3.47586167      0.91342128
    H      0.39133899      3.02493629     -2.64462493      0.91214026
    H     -1.56221202      4.53767606     -2.10456766      0.91561808
    H     -3.28667723      5.08120721     -0.45675944      0.91349403
    H     -3.22084606      4.91156950      2.50864047      0.92195888
    H     -5.06620579      5.59316813      4.00182829      0.92458755
    H     -7.32490858      4.60116600      3.72770918      0.92183585
    H     -7.73161010      2.92501915      1.94282323      0.92408937
    H     -5.89910675      2.24068786      0.43932566      0.91947498
    H     -3.87986700     -0.57314799     -0.22966455      0.91993577
    H     -4.73928380     -2.32456433      1.27423233      0.92377188
    H     -4.63150266     -2.02554807      3.73599989      0.92105072
    H     -3.64913699      0.04758163      4.68542805      0.92413475
    H     -2.77089073      1.80087238      3.19487880      0.92082012
    H     -0.30058037      0.63959160      2.54556864      0.90057178
    H      0.94554908      2.37397456      3.80369533      0.91180658
    H      2.70354686      3.71402662      2.66483127      0.90865889
    H      3.22000786      3.27878439      0.26452861      0.89434317
   47
Geometry Step: 3
    C     -0.31806149      2.20195318     -2.53623748      4.25542794
    C     -1.28903134      2.51232142     -1.43261481      3.98593431
    C     -1.87007748      3.77997294     -1.38492094      4.10967454
    C     -2.84413249      4.09230096     -0.44945495      4.11949868
    C     -3.30273021      3.12055099      0.45065012      3.98644201
    C     -4.42337726      3.51037715      1.37768063      3.94720038
    C     -4.20564369      4.47788260      2.37600349      4.10851465
    C     -5.24760442      4.85952037      3.22096679      4.07440106
    C     -6.51621795      4.30242587      3.06781544      4.08461756
    C     -6.74521326      3.36235855      2.06457593      4.07206564
    C     -5.70990906      2.96781187      1.21840591      4.09679589
    C     -2.74519781      1.82556216      0.43815353      4.02881798
    C     -3.25199199      0.74760100      1.36721449      3.94333783
    C     -3.81378282     -0.42921285      0.84130075      4.09814238
    C     -4.30777554     -1.41896621      1.69324897      4.07421563
    C     -4.24710218     -1.25285058      3.07639047      4.08242981
    C     -3.69382021     -0.08995048      3.60743482      4.07457573
    C     -3.20016545      0.90818736      2.76329873      4.10265433
    C     -1.69960411      1.56834977     -0.47423981      3.90000787
    N     -1.13902914      0.19848733     -0.54283340      5.07537225
    N      0.00227809     -0.04259942     -0.02853853      5.06972661
    C      0.69734875      1.04203494      0.69496744      3.95001253
    C      0.44642748      1.24009025      2.05880071      4.11037034
    C      1.16490524      2.21131011      2.75786387      4.10522335
    C      2.14790164      2.96019110      2.11607075      4.08660106
    C      2.45042849      2.73297030      0.77296755      4.18081656
    C      1.74258821      1.75770100      0.07583506      3.63434941
    F      2.06944175      1.50986707     -1.20889685      7.26584468
    H      0.23982209      1.29583753     -2.37431876      0.89194880
    H     -0.86496779      2.09662292     -3.47497970      0.91336262
    H      0.38635328      3.02173476     -2.64954610      0.91198521
    H     -1.56091685      4.53410942     -2.10346175      0.91663638
    H     -3.28842573      5.07980960     -0.45234034      0.91257643
    H     -3.21938989      4.91061421      2.50671510      0.92072362
    H     -5.06530604      5.59320261      4.00142222      0.92413158
    H     -7.32716092      4.60209776      3.72977205      0.92405498
    H     -7.73142576      2.92527924      1.94209475      0.92338399
    H     -5.89682121      2.23994218      0.43846765      0.91789891
    H     -3.87853204     -0.57110165     -0.23135808      0.91819923
    H     -4.73930733     -2.32371658      1.27345210      0.92305458
    H     -4.63275143     -2.02821237      3.73832833      0.92366680
    H     -3.64826162      0.04833514      4.68495513      0.92385381
    H     -2.77007092      1.80358933      3.19318128      0.91885420
    H     -0.30464692      0.64033854      2.54523289      0.89775262
    H      0.94574646      2.37353764      3.80304963      0.91036717
    H      2.70406251      3.71550190      2.66525213      0.91154697
    H      3.22334924      3.28126789      0.26232856      0.89293108
   47
Geometry Step: 4
    C     -0.31921005      2.20335105     -2.53568931      4.25482749
    C     -1.28960634      2.50753553     -1.42826835      3.98840932
    C     -1.86940854      3.78040369     -1.38389278      4.11052982
    C     -2.84598695      4.08997745     -0.44850566      4.11944588
    C     -3.30205751      3.11800159      0.45082141      3.98627297
    C     -4.42472092      3.51475799      1.37480731      3.94646479
    C     -4.20621514      4.47581110      2.37503850      4.10714023
    C     -5.24600287      4.85881188      3.22004441      4.07459899
    C     -6.51694046      4.30281885      3.06846015      4.08632043
    C     -6.74336074      3.36170587      2.06362031      4.07211316
    C     -5.70787183      2.97093569      1.21790010      4.09574334
    C     -2.74221297      1.82475877      0.43882370      4.02912050
    C     -3.25232168      0.74817860      1.36724799      3.94403369
    C     -3.81539838     -0.42811391      0.84303969      4.09771584
    C     -4.30732045     -1.41794257      1.69248746      4.07389708
    C     -4.24766393     -1.25411623      3.07738341      4.08455605
    C     -3.69314062     -0.08866895      3.60675099      4.07449553
    C     -3.20034918      0.90570057      2.76175934      4.10106961
    C     -1.70162887      1.56156348     -0.47350366      3.89808132
    N     -1.12727898      0.20776162     -0.54065347      5.07290404
    N     -0.00179903     -0.03054594     -0.02159274      5.06672063
    C      0.69921964      1.03763748      0.69296747      3.94607604
    C      0.44885022      1.23951026      2.05241038      4.11189417
    C      1.16280505      2.20983632      2.75469934      4.10430003
    C      2.14858860      2.96095230      2.11653988      4.08988291
    C      2.44563194      2.72827797      0.77028044      4.18044271
    C      1.73715818      1.75588578      0.07470291      3.63456592
    F      2.06667752      1.51218855     -1.20931613      7.26650523
    H      0.24430434      1.29615280     -2.37357586      0.89341130
    H     -0.86761035      2.09523605     -3.47543362      0.91339415
    H      0.38891924      3.02338247     -2.64701336      0.91207621
    H     -1.56158343      4.53594504     -2.10403092      0.91611405
    H     -3.28752584      5.08052890     -0.45461469      0.91305126
    H     -3.22013932      4.91110587      2.50770602      0.92136077
    H     -5.06576910      5.59318486      4.00163121      0.92436863
    H     -7.32600172      4.60161822      3.72871037      0.92291017
    H     -7.73152063      2.92514538      1.94246967      0.92374901
    H     -5.89799749      2.24032595      0.43890924      0.91870830
    H     -3.87921909     -0.57215482     -0.23048648      0.91909131
    H     -4.73929522     -2.32415289      1.27385366      0.92342559
    H     -4.63210873     -2.02684115      3.73712997      0.92231761
    H     -3.64871214      0.04794733      4.68519853      0.92400189
    H     -2.77049285      1.80219102      3.19405493      0.91986657
    H     -0.30255401      0.63995412      2.54540569      0.89919455
    H      0.94564487      2.37376250      3.80338195      0.91110972
    H      2.70379712      3.71474263      2.66503553      0.91005805
    H      3.22162955      3.27998972      0.26346084      0.89366314
   47
Geometry Step: 5
    C     -0.32112634      2.20438292     -2.53690258      4.25553590
    C     -1.28979571      2.51177318     -1.43081912      3.98839582
    C     -1.86840978      3.78289079     -1.38757701      4.11027789
    C     -2.84416296      4.09085147     -0.44911902      4.12031062
    C     -3.31023592      3.12425501      0.45659228      3.98434075
    C     -4.41970444      3.51053780      1.37395758      3.94372030
    C     -4.20714180      4.47529463      2.37474585      4.10793448
    C     -5.24748120      4.86005628      3.22151541      4.07532622
    C     -6.51662146      4.30266760      3.06824684      4.08478512
    C     -6.74593031      3.36193391      2.06472571      4.07300803
    C     -5.70731319      2.96954658      1.21988017      4.09656635
    C     -2.74636319      1.82244032      0.44195512      4.03193644
    C     -3.25034724      0.75129384      1.36382366      3.94284700
    C     -3.81367773     -0.42834721      0.84380269      4.09831406
    C     -4.30777922     -1.41941070      1.69314713      4.07451720
    C     -4.24732136     -1.25330437      3.07638769      4.08318497
    C     -3.69349488     -0.08923416      3.60813574      4.07518793
    C     -3.20114436      0.90558865      2.76137759      4.10144891
    C     -1.69379894      1.55188713     -0.47538022      3.90061340
    N     -1.12724327      0.20535296     -0.53749047      5.06695673
    N     -0.00770637     -0.02995603     -0.02735691      5.06411653
    C      0.69561563      1.03360374      0.68649929      3.94854297
    C      0.44862648      1.24098543      2.05306333      4.11259952
    C      1.16423883      2.21107273      2.75770818      4.10492005
    C      2.14945584      2.96162324      2.11640009      4.08840377
    C      2.44849499      2.73110846      0.77297990      4.18001877
    C      1.73863494      1.75492596      0.07654305      3.63513523
    F      2.06935050      1.51037177     -1.20609931      7.26648085
    H      0.24148120      1.29307615     -2.37361835      0.89456564
    H     -0.86520460      2.09636297     -3.47574977      0.91292561
    H      0.38793915      3.02263078     -2.64980952      0.91202315
    H     -1.56102758      4.53475650     -2.10385928      0.91430023
    H     -3.28877812      5.08117418     -0.45234857      0.91413305
    H     -3.21883193      4.91104285      2.50681189      0.92209937
    H     -5.06551598      5.59342262      4.00158362      0.92344005
    H     -7.32669868      4.60191701      3.72936349      0.92384080
    H     -7.73199416      2.92531721      1.94214311      0.92270879
    H     -5.89721449      2.23901807      0.43779906      0.91935859
    H     -3.87843410     -0.57125329     -0.23229950      0.92019718
    H     -4.73940738     -2.32388790      1.27345867      0.92276488
    H     -4.63240831     -2.02747034      3.73770787      0.92346057
    H     -3.64832683      0.04819521      4.68498959      0.92321718
    H     -2.76967615      1.80471275      3.19373594      0.92074444
    H     -0.30638851      0.63929737      2.54695745      0.90018180
    H      0.94592830      2.37422209      3.80500379      0.91017004
    H      2.70384983      3.71546222      2.66554083      0.91075454
    H      3.22529169      3.28285042      0.26200278      0.89368829
   47
Geometry Step: 6
    C     -0.32066136      2.20413254     -2.53660818      4.25536955
    C     -1.28974976      2.51074493     -1.43020019      3.98839015
    C     -1.86865212      3.78228730     -1.38668305      4.11034763
    C     -2.84460554      4.09063940     -0.44897019      4.12009009
    C     -3.30825146      3.12273765      0.45519200      3.98482223
    C     -4.42092167      3.51156181      1.37416377      3.94438350
    C     -4.20691695      4.47541995      2.37481686      4.10774168
    C     -5.24712249      4.85975433      3.22115848      4.07515275
    C     -6.51669886      4.30270430      3.06829860      4.08515884
    C     -6.74530681      3.36187857      2.06445749      4.07279161
    C     -5.70744874      2.96988364      1.21939972      4.09636556
    C     -2.74535616      1.82300288      0.44119530      4.03122641
    C     -3.25082633      0.75053794      1.36465456      3.94314093
    C     -3.81409524     -0.42829060      0.84361755      4.09816459
    C     -4.30766790     -1.41905446      1.69298707      4.07436177
    C     -4.24740448     -1.25350137      3.07662930      4.08351534
    C     -3.69340892     -0.08909701      3.60779973      4.07502515
    C     -3.20095141      0.90561581      2.76147022      4.10136198
    C     -1.69569884      1.55423505     -0.47492488      3.90000972
    N     -1.12725193      0.20593741     -0.53825796      5.06840250
    N     -0.00627298     -0.03009917     -0.02595826      5.06475298
    C      0.69649012      1.03458251      0.68806877      3.94795057
    C      0.44868077      1.24062748      2.05290490      4.11242154
    C      1.16389093      2.21077272      2.75697810      4.10476765
    C      2.14924540      2.96146044      2.11643401      4.08875742
    C      2.44780028      2.73042165      0.77232489      4.18012252
    C      1.73827661      1.75515886      0.07609655      3.63499212
    F      2.06870191      1.51081260     -1.20687985      7.26648905
    H      0.24216622      1.29382269     -2.37360804      0.89428658
    H     -0.86578835      2.09608953     -3.47567306      0.91303821
    H      0.38817696      3.02281317     -2.64913104      0.91203539
    H     -1.56116245      4.53504489     -2.10390093      0.91473851
    H     -3.28847426      5.08101760     -0.45289844      0.91387408
    H     -3.21914916      4.91105814      2.50702885      0.92192029
    H     -5.06557740      5.59336493      4.00159517      0.92366432
    H     -7.32652956      4.60184451      3.72920501      0.92361550
    H     -7.73187926      2.92527552      1.94222234      0.92295972
    H     -5.89740448      2.23933542      0.43806844      0.91920040
    H     -3.87862458     -0.57147205     -0.23185958      0.91992970
    H     -4.73938017     -2.32395220      1.27355451      0.92292444
    H     -4.63233562     -2.02731767      3.73756764      0.92318338
    H     -3.64842033      0.04813507      4.68504029      0.92340760
    H     -2.76987432      1.80410086      3.19381334      0.92053277
    H     -0.30545808      0.63945672      2.54658092      0.89994392
    H      0.94585953      2.37411058      3.80461026      0.91039799
    H      2.70383704      3.71528762      2.66541822      0.91058753
    H      3.22440309      3.28215629      0.26235657      0.89368383
   47
Geometry Step: 7
    C     -0.32197835      2.20510773     -2.53786585      4.25496749
    C     -1.28992136      2.50867302     -1.42978745      3.99010472
    C     -1.86932607      3.78459536     -1.38840530      4.11152794
    C     -2.84477483      4.09144294     -0.44711744      4.11976045
    C     -3.30932308      3.12339001      0.45643911      3.98474663
    C     -4.42162404      3.50999083      1.37760124      3.94360718
    C     -4.20800449      4.47412002      2.37437461      4.10665141
    C     -5.24694510      4.86004546      3.22090072      4.07522801
    C     -6.51839704      4.30325124      3.06966288      4.08626336
    C     -6.74539950      3.36141182      2.06426856      4.07284675
    C     -5.70580556      2.96827789      1.22229009      4.09528867
    C     -2.74487522      1.82474691      0.43799327      4.03216000
    C     -3.25031860      0.75138862      1.36410018      3.94407399
    C     -3.81191948     -0.42842068      0.84416052      4.09742915
    C     -4.30705506     -1.41892535      1.69227233      4.07427441
    C     -4.24796868     -1.25450900      3.07750579      4.08463901
    C     -3.69297783     -0.08808781      3.60751538      4.07503218
    C     -3.20174637      0.90571368      2.76019192      4.10008673
    C     -1.69438889      1.54868848     -0.47396319      3.89659102
    N     -1.13445810      0.20611231     -0.53909846      5.06804829
    N     -0.00451101     -0.03021145     -0.02739601      5.06602209
    C      0.69385596      1.03187652      0.68362485      3.94469541
    C      0.44840191      1.24115051      2.04891998      4.11260560
    C      1.16443324      2.21012976      2.75764149      4.10491502
    C      2.15113860      2.96386897      2.11871361      4.09004126
    C      2.44991341      2.73095945      0.77241452      4.18015519
    C      1.73854128      1.75307508      0.07973658      3.63520126
    F      2.07271319      1.50876612     -1.20255194      7.26723404
    H      0.23813784      1.29035638     -2.37357555      0.89528204
    H     -0.86363227      2.09734908     -3.47766958      0.91291358
    H      0.38779729      3.02222764     -2.65298071      0.91176253
    H     -1.55981472      4.53563137     -2.10562084      0.91359992
    H     -3.28970113      5.08221293     -0.45030950      0.91425702
    H     -3.21828607      4.91083163      2.50586022      0.92255761
    H     -5.06535799      5.59427274      4.00210937      0.92380599
    H     -7.32685032      4.60204499      3.72954725      0.92269422
    H     -7.73353858      2.92530259      1.94180372      0.92313534
    H     -5.89648421      2.23793837      0.43724912      0.91987387
    H     -3.87751354     -0.57036766     -0.23334221      0.92061547
    H     -4.73980608     -2.32416852      1.27293082      0.92305808
    H     -4.63226633     -2.02714948      3.73746534      0.92236821
    H     -3.64796490      0.04839915      4.68549325      0.92350263
    H     -2.76931390      1.80658250      3.19315255      0.92146372
    H     -0.30967971      0.63958824      2.54843758      0.90125031
    H      0.94631416      2.37511251      3.80800457      0.91047556
    H      2.70392982      3.71639270      2.66627500      0.90954223
    H      3.22895261      3.28585320      0.26118337      0.89364439
   47
Geometry Step: 8
    C     -0.32184511      2.20500906     -2.53773861      4.25500703
    C     -1.28990400      2.50888264     -1.42982921      3.98993408
    C     -1.86925789      3.78436185     -1.38823106      4.11140794
    C     -2.84475770      4.09136164     -0.44730489      4.11979383
    C     -3.30921467      3.12332401      0.45631294      3.98475663
    C     -4.42155298      3.51014977      1.37725347      3.94368795
    C     -4.20789447      4.47425154      2.37441935      4.10676104
    C     -5.24696304      4.86001601      3.22092680      4.07521936
    C     -6.51822523      4.30319591      3.06952485      4.08615124
    C     -6.74539012      3.36145904      2.06428768      4.07284075
    C     -5.70597180      2.96844035      1.22199767      4.09539661
    C     -2.74492387      1.82457046      0.43831723      4.03206789
    C     -3.25036996      0.75130255      1.36415626      3.94397838
    C     -3.81213960     -0.42840752      0.84410559      4.09750205
    C     -4.30711706     -1.41893841      1.69234464      4.07428290
    C     -4.24791160     -1.25440706      3.07741712      4.08452641
    C     -3.69302144     -0.08818992      3.60754415      4.07503200
    C     -3.20166594      0.90570378      2.76032125      4.10021436
    C     -1.69452142      1.54924964     -0.47406048      3.89693650
    N     -1.13372904      0.20609462     -0.53901342      5.06808950
    N     -0.00468927     -0.03020009     -0.02725055      5.06589142
    C      0.69412247      1.03215029      0.68407445      3.94502461
    C      0.44843012      1.24109759      2.04932314      4.11258783
    C      1.16437837      2.21019481      2.75757438      4.10489998
    C      2.15094706      2.96362530      2.11848297      4.08991346
    C      2.44969962      2.73090504      0.77240545      4.18015234
    C      1.73851450      1.75328590      0.07936831      3.63518177
    F      2.07230736      1.50897317     -1.20298980      7.26715617
    H      0.23854540      1.29070707     -2.37357884      0.89518241
    H     -0.86385040      2.09722165     -3.47746759      0.91292557
    H      0.38783570      3.02228688     -2.65259123      0.91178875
    H     -1.55995107      4.53557204     -2.10544683      0.91371291
    H     -3.28957701      5.08209200     -0.45057143      0.91421779
    H     -3.21837339      4.91085454      2.50597846      0.92249345
    H     -5.06538019      5.59418089      4.00205734      0.92379150
    H     -7.32681787      4.60202471      3.72951262      0.92278657
    H     -7.73337070      2.92529985      1.94184608      0.92311758
    H     -5.89657732      2.23807972      0.43733202      0.91980599
    H     -3.87762595     -0.57047940     -0.23319221      0.92054665
    H     -4.73976299     -2.32414663      1.27299392      0.92304468
    H     -4.63227334     -2.02716649      3.73747569      0.92245029
    H     -3.64801098      0.04837243      4.68544742      0.92349331
    H     -2.76937060      1.80633142      3.19321940      0.92136985
    H     -0.30925260      0.63957493      2.54824974      0.90111764
    H      0.94626816      2.37501114      3.80766116      0.91046706
    H      2.70392043      3.71628090      2.66618831      0.90964649
    H      3.22849233      3.28547917      0.26130207      0.89364748
   47
Geometry Step: 9
    C     -0.32223484      2.20438102     -2.53854890      4.25468411
    C     -1.29104497      2.50723285     -1.42866023      3.99017497