   47
Geometry Step: 0
    C     -0.32396525      2.20704170     -2.53521861      4.24888540
    C     -1.29304402      2.50583703     -1.42089425      3.99623500
    C     -1.86521425      3.78088873     -1.38500950      4.10708259
    C     -2.84694912      4.08579565     -0.44962273      4.12791523
    C     -3.31512063      3.12184846      0.46156248      3.98069171
    C     -4.41694711      3.51929762      1.36135198      3.93952015
    C     -4.20673046      4.47154039      2.37314597      4.10773469
    C     -5.24706531      4.85865445      3.22110458      4.07600279
    C     -6.51478999      4.30244646      3.06704253      4.08436760
    C     -6.74379020      3.36204436      2.06520476      4.07399753
    C     -5.70349871      2.97639398      1.21655320      4.09758180
    C     -2.74264486      1.81552080      0.45004722      4.04211918
    C     -3.24990101      0.75502390      1.36030630      3.93944217
    C     -3.81746322     -0.42388893      0.84653464      4.10347750
    C     -4.30824344     -1.41975595      1.69519097      4.07752383
    C     -4.24663302     -1.25226719      3.07587987      4.08477689
    C     -3.69418140     -0.09091200      3.60828057      4.07562211
    C     -3.20024115      0.90169782      2.75777733      4.09771851
    C     -1.69201591      1.52930523     -0.47644440      3.88169279
    N     -1.11458502      0.23484689     -0.53928492      5.05479002
    N      0.00000000      0.00000000      0.00000000      5.05904798
    C      0.57098501     -1.28669939     -0.06409154      3.92995864
    C      0.31151222     -2.21065566      0.95604191      4.12263763
    C      0.82558516     -3.50953572      0.89896827      4.10294264
    C      1.58471306     -3.91072692     -0.19899654      4.09532842
    C      1.81289743     -3.01832462     -1.24464886      4.17885555
    C      1.29524710     -1.72498767     -1.17777399      3.64215559
    F      1.49605216     -0.90860887     -2.22307449      7.26526352
    H      0.25384310      1.29454033     -2.37189750      0.90391578
    H     -0.87222082      2.09265637     -3.47617058      0.91185444
    H      0.39447968      3.02703561     -2.64249533      0.91727171
    H     -1.56312860      4.53914632     -2.10467090      0.91433964
    H     -3.28645869      5.08261688     -0.45833986      0.91528065
    H     -3.22124236      4.91205946      2.50938553      0.92227262
    H     -5.06654730      5.59289261      4.00160663      0.92321820
    H     -7.32464566      4.60099888      3.72736923      0.92428781
    H     -7.73126904      2.92503931      1.94303894      0.92295304
    H     -5.90012668      2.24062451      0.43940565      0.92056275
    H     -3.88037590     -0.57409708     -0.22961251      0.92255546
    H     -4.73903809     -2.32444578      1.27453233      0.92291443
    H     -4.63136182     -2.02517651      3.73565036      0.92429560
    H     -3.64943534      0.04740013      4.68503324      0.92257775
    H     -2.77102656      1.80029365      3.19585057      0.92035879
    H     -0.30084721     -1.90845884      1.80284215      0.90248630
    H      0.62411094     -4.20652280      1.70887912      0.91012088
    H      1.98262433     -4.92127826     -0.24764985      0.91014633
    H      2.38059119     -3.32129174     -2.11876329      0.89522039
   47
Geometry Step: 1
    C     -0.30510131      2.19973240     -2.52913461      4.24689025
    C     -1.28377793      2.50095689     -1.43389873      3.98110639
    C     -1.87573129      3.77791466     -1.38027300      4.11518331
    C     -2.85013810      4.09345062     -0.44310439      4.11548642
    C     -3.27308945      3.10023512      0.42838403      3.99176445
    C     -4.44458774      3.51798899      1.39449739      3.95823347
    C     -4.20682926      4.47869027      2.37616822      4.10056055
    C     -5.23907998      4.85709560      3.21512200      4.07185903
    C     -6.52351195      4.30474651      3.07329128      4.09644817
    C     -6.73709173      3.35910913      2.05753424      4.06903610
    C     -5.71100145      2.96871596      1.21926521      4.09002038
    C     -2.73695528      1.84257862      0.42025907      4.01931180
    C     -3.25729733      0.73639745      1.38240441      3.94909611
    C     -3.81563783     -0.43378612      0.84082978      4.09581333
    C     -4.30410245     -1.41150562      1.68446274      4.07273242
    C     -4.25140555     -1.26177781      3.08369599      4.09902145
    C     -3.68881084     -0.07969665      3.60127213      4.07090827
    C     -3.20163502      0.90670252      2.76574843      4.08928798
    C     -1.70443501      1.58855417     -0.45745068      3.88636231
    N     -1.16736341      0.17754568     -0.57133074      5.09381179
    N      0.04416563      0.08523250      0.04371944      5.08666502
    C      0.52515338     -1.33614814     -0.08617374      3.94478113
    C      0.31666388     -2.22134270      0.98480257      4.10517435
    C      0.82483975     -3.50180951      0.90519627      4.09718029
    C      1.58586141     -3.92296711     -0.19324493      4.10067797
    C      1.82521574     -3.01539818     -1.25717294      4.17845049
    C      1.31806343     -1.74823253     -1.18654666      3.63037086
    F      1.49508177     -0.89098680     -2.22932775      7.27279469
    H      0.24501689      1.29899417     -2.37037221      0.89204906
    H     -0.86423281      2.09553033     -3.47478174      0.91580815
    H      0.38543985      3.02128234     -2.64903426      0.91462751
    H     -1.56008816      4.53469970     -2.10418476      0.91987600
    H     -3.28696324      5.07827315     -0.45335047      0.90884837
    H     -3.22006744      4.91051938      2.50709672      0.91993703
    H     -5.06550547      5.59373157      4.00230022      0.92725980
    H     -7.32548704      4.60151270      3.72843416      0.91747283
    H     -7.73236568      2.92496251      1.94237639      0.92744359
    H     -5.89700246      2.24078991      0.43914409      0.91802918
    H     -3.87896846     -0.57126676     -0.22993201      0.91682253
    H     -4.73992199     -2.32483637      1.27357230      0.92713757
    H     -4.63189751     -2.02640771      3.73670548      0.91575210
    H     -3.64852391      0.04787534      4.68623810      0.92698268
    H     -2.77036166      1.80164944      3.19270289      0.91741839
    H     -0.30019149     -1.90792078      1.80014549      0.89586634
    H      0.62352854     -4.20472464      1.70692649      0.91367981
    H      1.98210473     -4.91927531     -0.24875093      0.90397445
    H      2.37991845     -3.32153131     -2.12030434      0.89198583
   47
Geometry Step: 2
    C     -0.31838291      2.20487868     -2.53341819      4.24834237
    C     -1.29030194      2.50439286     -1.42474262      3.99049740
    C     -1.86832653      3.78000862     -1.38360785      4.11011696
    C     -2.84789282      4.08806096     -0.44769378      4.12283471
    C     -3.30268248      3.11545250      0.45174409      3.98504410
    C     -4.42512671      3.51891036      1.37116059      3.94501840
    C     -4.20675970      4.47365623      2.37404033      4.10557043
    C     -5.24470224      4.85819315      3.21933418      4.07484111
    C     -6.51737105      4.30312711      3.06889170      4.08784025
    C     -6.74180795      3.36117575      2.06293485      4.07260125
    C     -5.70571897      2.97412185      1.21735575      4.09531666
    C     -2.74096116      1.82352793      0.44123211      4.03358732
    C     -3.25208978      0.74951184      1.36684572      3.94262078
    C     -3.81692303     -0.42681777      0.84484642      4.10076107
    C     -4.30701801     -1.41731446      1.69201620      4.07620939
    C     -4.24804534     -1.25508164      3.07819287      4.08883199
    C     -3.69259210     -0.08759308      3.60620658      4.07434907
    C     -3.20065363      0.90317884      2.76013619      4.09494322
    C     -1.69569105      1.54683857     -0.47082366      3.88250603
    N     -1.13020355      0.21788994     -0.54876813      5.07024260
    N      0.01306979      0.02522257      0.01293775      5.07042562
    C      0.55742221     -1.30133260     -0.07062625      3.93316302
    C      0.31303674     -2.21381824      0.96455295      4.11627516
    C      0.82536457     -3.50724933      0.90081130      4.10187385
    C      1.58505289     -3.91434912     -0.19729449      4.09617287
    C      1.81654274     -3.01745861     -1.24835507      4.17893425
    C      1.30199906     -1.73186645     -1.18037006      3.63810605
    F      1.49576500     -0.90339403     -2.22492500      7.26737814
    H      0.25123119      1.29585834     -2.37144613      0.89998011
    H     -0.86985695      2.09350685     -3.47575959      0.91306242
    H      0.39180456      3.02533306     -2.64443037      0.91659784
    H     -1.56222885      4.53783045     -2.10452704      0.91595580
    H     -3.28660800      5.08133146     -0.45686337      0.91342386
    H     -3.22089467      4.91160371      2.50870821      0.92157775
    H     -5.06623899      5.59314088      4.00181188      0.92439225
    H     -7.32489465      4.60115093      3.72768437      0.92223413
    H     -7.73159357      2.92501658      1.94284287      0.92425925
    H     -5.89920214      2.24067346      0.43932825      0.91981740
    H     -3.87995940     -0.57325951     -0.22970706      0.92077993
    H     -4.73929966     -2.32456136      1.27424823      0.92415785
    H     -4.63152034     -2.02554085      3.73596260      0.92173911
    H     -3.64916562      0.04754076      4.68538979      0.92387581
    H     -2.77082980      1.80069487      3.19491908      0.91952930
    H     -0.30065316     -1.90829961      1.80204413      0.90048874
    H      0.62393859     -4.20599067      1.70830129      0.91115050
    H      1.98247057     -4.92068553     -0.24797569      0.90831383
    H      2.38039211     -3.32136264     -2.11921932      0.89426004
   47
Geometry Step: 3
    C     -0.31363031      2.20243433     -2.53273287      4.24993577
    C     -1.28815329      2.50736699     -1.42868517      3.98524577
    C     -1.87048809      3.77987596     -1.38468467      4.11037638
    C     -2.84479765      4.09097729     -0.44933766      4.11928321
    C     -3.30296515      3.11910277      0.45069065      3.98713522
    C     -4.42350310      3.51232529      1.37571353      3.94617890
    C     -4.20586297      4.47674558      2.37543116      4.10752101
    C     -5.24690935      4.85919710      3.22055481      4.07453228
    C     -6.51644770      4.30259710      3.06805226      4.08559441
    C     -6.74439019      3.36209261      2.06420171      4.07250390
    C     -5.70873441      2.96953055      1.21813737      4.09676377
    C     -2.74178873      1.82273369      0.43765257      4.03024683
    C     -3.25204086      0.74829855      1.36756341      3.94210784
    C     -3.81434033     -0.42836483      0.84236481      4.10146396
    C     -4.30753245     -1.41871227      1.69300258      4.07689804
    C     -4.24722701     -1.25333805      3.07687122      4.08589334
    C     -3.69354824     -0.08937746      3.60712895      4.07454632
    C     -3.20049891      0.90707465      2.76249688      4.09669212
    C     -1.69222668      1.55797254     -0.47128321      3.89405207
    N     -1.12165568      0.19671325     -0.54198732      5.07004957
    N     -0.00146968      0.05934950      0.01165585      5.06810335
    C      0.53619138     -1.31616136     -0.07924273      3.94987400
    C      0.31541734     -2.21268236      0.97158294      4.10928479
    C      0.82833638     -3.51148755      0.90297704      4.10575379
    C      1.58426232     -3.91218194     -0.19738346      4.08705383
    C      1.82376381     -3.02729737     -1.24936431      4.18099327
    C      1.30582130     -1.73225453     -1.18297949      3.63533314
    F      1.49544523     -0.89701587     -2.22478658      7.26590317
    H      0.24876330      1.29486025     -2.36969764      0.89769154
    H     -0.86415359      2.09497783     -3.47369954      0.91315064
    H      0.38887288      3.02372720     -2.64813516      0.91607037
    H     -1.56113762      4.53498068     -2.10366043      0.91685728
    H     -3.28798402      5.08048101     -0.45347004      0.91339018
    H     -3.21981370      4.91085187      2.50725055      0.92055457
    H     -5.06555384      5.59317014      4.00151921      0.92412711
    H     -7.32659525      4.60184924      3.72924325      0.92382095
    H     -7.73148995      2.92520244      1.94229079      0.92383626
    H     -5.89745886      2.24011560      0.43869402      0.91865461
    H     -3.87903265     -0.57172421     -0.23101782      0.91957565
    H     -4.73942594     -2.32399598      1.27360885      0.92376977
    H     -4.63252745     -2.02760211      3.73773497      0.92367500
    H     -3.64849644      0.04808169      4.68500965      0.92371437
    H     -2.77007513      1.80250607      3.19355046      0.91781130
    H     -0.30165588     -1.90742199      1.80381885      0.89967129
    H      0.62379942     -4.20538252      1.70785578      0.91001538
    H      1.98285806     -4.92191539     -0.24829926      0.91110868
    H      2.38197291     -3.32242240     -2.12228009      0.89318498
   47
Geometry Step: 4
    C     -0.31539103      2.20333990     -2.53298677      4.24934042
    C     -1.28894932      2.50626515     -1.42722455      3.98718373
    C     -1.86968728      3.77992511     -1.38428574      4.11030382
    C     -2.84594434      4.08989686     -0.44872864      4.12056143
    C     -3.30286043      3.11775043      0.45108092      3.98638385
    C     -4.42410461      3.51476490      1.37402677      3.94574363
    C     -4.20619519      4.47560105      2.37491589      4.10680119
    C     -5.24609167      4.85882516      3.22010259      4.07464888
    C     -6.51678978      4.30279346      3.06836325      4.08642970
    C     -6.74343353      3.36175293      2.06373237      4.07253880
    C     -5.70761726      2.97123152      1.21784780      4.09623258
    C     -2.74148214      1.82302794      0.43897870      4.03147284
    C     -3.25205898      0.74874804      1.36729752      3.94228519
    C     -3.81529716     -0.42779168      0.84328419      4.10120079
    C     -4.30734187     -1.41819442      1.69263715      4.07665249
    C     -4.24753018     -1.25398401      3.07736086      4.08698663
    C     -3.69319402     -0.08871639      3.60678723      4.07447686
    C     -3.20055623      0.90563135      2.76162230      4.09604854
    C     -1.69351015      1.55384767     -0.47111296      3.88970446
    N     -1.12482246      0.20455870     -0.54449945      5.07023638
    N      0.00391684      0.04670629      0.01213076      5.06925284
    C      0.54405689     -1.31066766     -0.07605053      3.94345490
    C      0.31453538     -2.21310317      0.96897850      4.11181691
    C      0.82723540     -3.50991739      0.90217469      4.10436239
    C      1.58455521     -3.91298483     -0.19735050      4.09031466
    C      1.82108858     -3.02365235     -1.24899041      4.18024313
    C      1.30440525     -1.73211075     -1.18201276      3.63635576
    F      1.49556370     -0.89937882     -2.22483786      7.26643704
    H      0.24967759      1.29523002     -2.37034541      0.89853103
    H     -0.86626655      2.09443287     -3.47446274      0.91312657
    H      0.38995899      3.02432213     -2.64676263      0.91627572
    H     -1.56154189      4.53603645     -2.10398149      0.91653623
    H     -3.28747424      5.08079608     -0.45472719      0.91340964
    H     -3.22021417      4.91113041      2.50779057      0.92093462
    H     -5.06580767      5.59315930      4.00162763      0.92422883
    H     -7.32596522      4.60159053      3.72866572      0.92323385
    H     -7.73152834      2.92513358      1.94249532      0.92399647
    H     -5.89810470      2.24032227      0.43892899      0.91908593
    H     -3.87937599     -0.57229300     -0.23053221      0.92001937
    H     -4.73937916     -2.32420544      1.27384573      0.92391824
    H     -4.63215434     -2.02683846      3.73707835      0.92295908
    H     -3.64874435      0.04788129      4.68515048      0.92377796
    H     -2.77035472      1.80183506      3.19405750      0.91844590
    H     -0.30128439     -1.90774713      1.80316136      0.89995918
    H      0.62385098     -4.20560782      1.70802083      0.91043573
    H      1.98271450     -4.92145976     -0.24817938      0.91006751
    H      2.38138726     -3.32202978     -2.12114615      0.89358832
   47
Geometry Step: 5
    C     -0.31577407      2.20346847     -2.53363425      4.25078766
    C     -1.28791026      2.51013192     -1.42844967      3.98720493
    C     -1.86777803      3.78175735     -1.38987275      4.11053797
    C     -2.84343421      4.09102629     -0.44941413      4.12211527
    C     -3.31272921      3.12483173      0.45836330      3.98439953
    C     -4.41717116      3.50807079      1.37372541      3.94227576
    C     -4.20775582      4.47474654      2.37435450      4.10745879
    C     -5.24786939      4.86067555      3.22202668      4.07567233
    C     -6.51678262      4.30269582      3.06838113      4.08463866
    C     -6.74707117      3.36193250      2.06506335      4.07374901
    C     -5.70682945      2.96894613      1.22109052      4.09699418
    C     -2.74405874      1.81889193      0.44099524      4.03540187
    C     -3.24924005      0.75283068      1.36236327      3.94095059
    C     -3.81258405     -0.42860459      0.84465050      4.10129932
    C     -4.30774493     -1.41999361      1.69311937      4.07716806
    C     -4.24723697     -1.25331384      3.07616399      4.08555393
    C     -3.69350590     -0.08899588      3.60870629      4.07536382
    C     -3.20203652      0.90553651      2.76143179      4.09630117
    C     -1.68733160      1.54590420     -0.47698799      3.88759773
    N     -1.13382459      0.20674775     -0.54010699      5.06710325
    N      0.00618805      0.05286791      0.01120666      5.06992471
    C      0.52891282     -1.30939714     -0.08351087      3.94360189
    C      0.31729645     -2.21301598      0.96826720      4.11086141
    C      0.82930541     -3.51106035      0.90435188      4.10478882
    C      1.58528442     -3.91400532     -0.19782055      4.08928234
    C      1.82447298     -3.02555715     -1.24896536      4.17969157
    C      1.30166482     -1.73163461     -1.18051555      3.63703117
    F      1.49558492     -0.89592878     -2.22128533      7.26678663
    H      0.24958902      1.29055281     -2.36740512      0.89928947
    H     -0.85961107      2.09548295     -3.47245070      0.91205362
    H      0.38965029      3.02433702     -2.65100863      0.91649891
    H     -1.56054739      4.53384594     -2.10367009      0.91393000
    H     -3.28938042      5.08174403     -0.45107237      0.91450137
    H     -3.21810366      4.91101024      2.50636546      0.92215658
    H     -5.06540003      5.59356862      4.00159704      0.92292163
    H     -7.32700163      4.60203792      3.72965370      0.92426458
    H     -7.73236220      2.92539281      1.94197572      0.92254611
    H     -5.89683468      2.23826376      0.43719842      0.92012295
    H     -3.87815230     -0.57078983     -0.23329900      0.92165489
    H     -4.73968248     -2.32388581      1.27317465      0.92311577
    H     -4.63263703     -2.02777604      3.73792824      0.92424980
    H     -3.64812415      0.04822921      4.68486474      0.92268439
    H     -2.76881174      1.80571261      3.19351335      0.91982614
    H     -0.30345682     -1.90623941      1.80818456      0.90186949
    H      0.62415084     -4.20720444      1.70952224      0.90973230
    H      1.98263177     -4.92250845     -0.24809003      0.91025227
    H      2.38593580     -3.32547517     -2.12675318      0.89378738
   47
Geometry Step: 6
    C     -0.31560946      2.20341322     -2.53335599      4.25016940
    C     -1.28835681      2.50847012     -1.42792316      3.98719077
    C     -1.86859856      3.78096991     -1.38747165      4.11044836
    C     -2.84451298      4.09054090     -0.44911953      4.12142865
    C     -3.30848796      3.12178844      0.45523359      3.98528218
    C     -4.42015091      3.51094768      1.37385492      3.94376445
    C     -4.20708511      4.47511378      2.37459577      4.10717631
    C     -5.24710539      4.85988032      3.22119977      4.07523441
    C     -6.51678570      4.30273778      3.06837345      4.08540586
    C     -6.74550784      3.36185533      2.06449134      4.07323048
    C     -5.70716802      2.96992831      1.21969691      4.09667178
    C     -2.74295141      1.82066944      0.44012860      4.03368330
    C     -3.25045153      0.75107610      1.36448384      3.94152972
    C     -3.81375005     -0.42825523      0.84406331      4.10124968
    C     -4.30757171     -1.41922038      1.69291213      4.07694683
    C     -4.24736298     -1.25360185      3.07667836      4.08616987
    C     -3.69337186     -0.08887576      3.60788154      4.07498799
    C     -3.20140035      0.90557727      2.76151366      4.09619157
    C     -1.68998692      1.54931803     -0.47446311      3.88852078
    N     -1.12995579      0.20580697     -0.54199471      5.06845831
    N      0.00521197      0.05021986      0.01160381      5.06960777
    C      0.53542121     -1.30994316     -0.08030468      3.94352847
    C      0.31610984     -2.21305346      0.96857289      4.11128238
    C      0.82841579     -3.51056915      0.90341620      4.10460089
    C      1.58497103     -3.91356675     -0.19761854      4.08973656
    C      1.82301848     -3.02473853     -1.24897613      4.17991841
    C      1.30284256     -1.73183924     -1.18115900      3.63675540
    F      1.49557580     -0.89741149     -2.22281208      7.26663712
    H      0.24962709      1.29256291     -2.36866875      0.89896525
    H     -0.86247136      2.09503166     -3.47331540      0.91251103
    H      0.38978296      3.02433062     -2.64918385      0.91640343
    H     -1.56097479      4.53478735     -2.10380392      0.91504166
    H     -3.28856121      5.08133663     -0.45264308      0.91403723
    H     -3.21901069      4.91106189      2.50697792      0.92163159
    H     -5.06557522      5.59339271      4.00161019      0.92348059
    H     -7.32655621      4.60184565      3.72922910      0.92382161
    H     -7.73200384      2.92528141      1.94219902      0.92316633
    H     -5.89738049      2.23914843      0.43794216      0.91967700
    H     -3.87867820     -0.57143584     -0.23210993      0.92095382
    H     -4.73955212     -2.32402318      1.27346306      0.92346012
    H     -4.63242959     -2.02737310      3.73756298      0.92369534
    H     -3.64839069      0.04807968      4.68498754      0.92315358
    H     -2.76947486      1.80404617      3.19374721      0.91923531
    H     -0.30252319     -1.90688738      1.80602576      0.90104775
    H      0.62402197     -4.20651827      1.70887699      0.91003427
    H      1.98266733     -4.92205776     -0.24812843      0.91017323
    H      2.38398100     -3.32399447     -2.12434348      0.89370314
   47
Geometry Step: 7
    C     -0.31431274      2.20310936     -2.53268527      4.24978589
    C     -1.28665728      2.50838440     -1.42850171      3.98884015
    C     -1.86906561      3.78159521     -1.38872691      4.11051642
    C     -2.84433272      4.09081424     -0.44767732      4.12191282
    C     -3.30757446      3.12069979      0.45548986      3.98491189
    C     -4.42096680      3.50872754      1.37782837      3.94374379
    C     -4.20780955      4.47403501      2.37419460      4.10623795
    C     -5.24708367      4.86006050      3.22078830      4.07518369
    C     -6.51836803      4.30324436      3.06964970      4.08634746
    C     -6.74554038      3.36153396      2.06438083      4.07318755
    C     -5.70575069      2.96784535      1.22242213      4.09564315
    C     -2.74287403      1.82354597      0.43718938      4.03439225
    C     -3.24961779      0.75120488      1.36399357      3.94243002
    C     -3.81138007     -0.42845734      0.84407268      4.10087254
    C     -4.30702655     -1.41923916      1.69245071      4.07690659
    C     -4.24781735     -1.25446960      3.07748837      4.08695674
    C     -3.69316774     -0.08812326      3.60751334      4.07491658
    C     -3.20211097      0.90631505      2.76020911      4.09540052
    C     -1.69253915      1.54631145     -0.47625054      3.88677873
    N     -1.13340592      0.21041347     -0.53610817      5.06679957
    N      0.00389970      0.04944463      0.00682713      5.06788954
    C      0.52671208     -1.30873854     -0.08400880      3.94283251
    C      0.31586620     -2.21186336      0.96830432      4.11227076
    C      0.83003049     -3.50994471      0.90418582      4.10405023
    C      1.58585136     -3.91512040     -0.19778305      4.09100322
    C      1.82468027     -3.02324943     -1.24976614      4.17967757
    C      1.29977980     -1.73242790     -1.18030794      3.63686089
    F      1.49575694     -0.89524021     -2.21923596      7.26729208
    H      0.24911485      1.28949404     -2.36618662      0.89931940
    H     -0.85784880      2.09549449     -3.47333543      0.91251854
    H      0.39010801      3.02439975     -2.65277522      0.91636958
    H     -1.55945389      4.53473570     -2.10533251      0.91480074
    H     -3.28972969      5.08224516     -0.44989344      0.91420864
    H     -3.21822031      4.91071357      2.50571968      0.92204903
    H     -5.06528899      5.59430931      4.00210116      0.92377208
    H     -7.32701131      4.60209711      3.72969457      0.92302123
    H     -7.73368123      2.92530472      1.94173167      0.92347573
    H     -5.89634965      2.23781717      0.43723080      0.92016694
    H     -3.87751737     -0.57022572     -0.23337299      0.92140887
    H     -4.74002911     -2.32419453      1.27277825      0.92357997
    H     -4.63245724     -2.02736010      3.73756748      0.92301412
    H     -3.64788622      0.04836633      4.68547354      0.92331668
    H     -2.76870922      1.80641452      3.19299089      0.91981467
    H     -0.30288874     -1.90631016      1.80885519      0.90159988
    H      0.62452093     -4.20811217      1.71053659      0.91035415
    H      1.98260074     -4.92310843     -0.24799867      0.90959239
    H      2.38744514     -3.32663844     -2.12779472      0.89397629
   47
Geometry Step: 8
    C     -0.31221460      2.20261772     -2.53160003      4.24918706
    C     -1.28390738      2.50824570     -1.42943782      3.99156247
    C     -1.86982132      3.78260697     -1.39075797      4.11059860
    C     -2.84404107      4.09125651     -0.44534377      4.12273512
    C     -3.30609638      3.11893833      0.45590452      3.98432328
    C     -4.42228693      3.50513526      1.38425755      3.94370215
    C     -4.20898171      4.47228953      2.37354548      4.10474262
    C     -5.24704852      4.86035204      3.22012253      4.07509767
    C     -6.52092829      4.30406401      3.07171473      4.08785370
    C     -6.74559304      3.36101399      2.06420202      4.07311095
    C     -5.70345738      2.96447504      1.22683161      4.09399125
    C     -2.74274883      1.82820030      0.43243362      4.03548642
    C     -3.24826877      0.75141326      1.36320029      3.94389093
    C     -3.80754537     -0.42878437      0.84408785      4.10025804
    C     -4.30614446     -1.41926955      1.69170412      4.07683589
    C     -4.24855252     -1.25587364      3.07879900      4.08824052
    C     -3.69283745     -0.08690568      3.60691757      4.07481427
    C     -3.20326079      0.90750880      2.75809829      4.09411934
    C     -1.69666874      1.54144672     -0.47914266      3.88401393
    N     -1.13898835      0.21786693     -0.52658355      5.06398160
    N      0.00177639      0.04819026     -0.00090169      5.06508568
    C      0.51262041     -1.30678943     -0.09000219      3.94182056
    C      0.31547197     -2.20993774      0.96786976      4.11386079
    C      0.83264312     -3.50893434      0.90543109      4.10314928
    C      1.58727578     -3.91763426     -0.19804923      4.09304181
    C      1.82736909     -3.02084000     -1.25104440      4.17930493
    C      1.29482414     -1.73338037     -1.17893089      3.63700418
    F      1.49605003     -0.89172700     -2.21344968      7.26835818
    H      0.24828603      1.28452851     -2.36217045      0.89990504
    H     -0.85036935      2.09624335     -3.47336782      0.91252188
    H      0.39063395      3.02451160     -2.65858618      0.91629281
    H     -1.55699302      4.53465213     -2.10780581      0.91440347
    H     -3.29162032      5.08371520     -0.44544444      0.91448721
    H     -3.21694144      4.91014999      2.50368379      0.92272393
    H     -5.06482587      5.59579239      4.00289557      0.92424052
    H     -7.32774766      4.60250397      3.73044771      0.92173141
    H     -7.73639531      2.92534245      1.94097548      0.92397245
    H     -5.89468172      2.23566314      0.43607980      0.92095919
    H     -3.87563911     -0.56826771     -0.23541667      0.92215206
    H     -4.74080089     -2.32447180      1.27167020      0.92376971
    H     -4.63250199     -2.02733905      3.73757474      0.92191555
    H     -3.64706997      0.04883014      4.68625989      0.92357790
    H     -2.76747040      1.81024659      3.19176713      0.92075605
    H     -0.30348023     -1.90537621      1.81343329      0.90250060
    H      0.62532827     -4.21069116      1.71322188      0.91086480
    H      1.98249300     -4.92480846     -0.24778872      0.90866051
    H      2.39305024     -3.33091648     -2.13337895      0.89439372
   47
Geometry Step: 9
    C     -0.31369652      2.20296497     -2.53236654      4.24960744
    C     -1.28584963      2.50834366     -1.42877664      3.98963834