   35
Geometry Step: 0
    C      4.37088733      1.66442133     -0.42077391      3.95304636
    O      3.61057594      1.34161286     -1.56885768      6.25588032
    C      2.70424771      0.34446845     -1.59176776      3.71149472
    C      2.10790181      0.07053696     -2.85881900      4.18416942
    C      2.45828571      0.77975138     -4.12032819      3.31130691
    O      1.92001145      0.53186242     -5.20115656      6.59051856
    O      3.41917395      1.74048835     -4.06093827      6.49500234
    C      1.14019178     -0.94549644     -2.96777922      4.06735229
    C      0.74377676     -1.69498479     -1.86463795      4.22147720
    C      1.31063710     -1.39683351     -0.62049271      3.60754309
    F      0.95824670     -2.14492643      0.43234545      7.24739540
    C      2.25676376     -0.36510422     -0.43680946      4.07504830
    N      2.92692006     -0.24840178      0.85252612      5.07176863
    N      2.25390242     -0.10499433      1.91123272      5.08522344
    C      0.84833004      0.19508786      1.88516024      3.83905906
    C     -0.02175679     -0.52809563      2.71895897      4.10892672
    C     -1.37174734     -0.15652324      2.81530063      3.92066604
    C     -2.27057399     -0.92117285      3.64903082      3.83423085
    N     -2.98548829     -1.53222813      4.31627686      5.27094072
    C     -1.84453060      0.96606330      2.11724410      4.09298823
    C     -0.96750133      1.71562824      1.31701766      4.06684981
    C     -1.49331623      2.91317107      0.60225329      3.32454136
    O     -2.65309306      3.30839777      0.66625774      6.55647505
    O     -0.58531825      3.58393512     -0.16542670      6.50959951
    C      0.37775413      1.32942242      1.19997889      4.12571272
    H      3.72316419      1.90904363      0.43292866      0.93857823
    H      5.04677710      0.84337716     -0.14542221      0.93893412
    H      4.97110094      2.54393620     -0.67377774      0.93289764
    H      3.54146384      2.10717829     -4.95094538      0.62535200
    H      0.71764646     -1.13706510     -3.94992881      0.87142763
    H      0.01822341     -2.49607913     -1.95386411      0.87845431
    H      0.34471539     -1.39921980      3.25455207      0.89185690
    H     -2.88375872      1.27394454      2.19144975      0.88029055
    H     -1.02711967      4.33902555     -0.58659432      0.61964622
    H      1.05633268      1.92136876      0.59108529      0.89534533
