   43
Geometry Step: 0
    C     -2.92165911     -2.13285385     -0.06832250      4.24626173
    C     -2.41403987     -1.82179847      1.31257488      3.99196695
    C     -2.79862481     -2.66373178      2.37303332      4.08484755
    C     -2.36663077     -2.41626564      3.68235599      4.09081101
    C     -2.81229061     -3.33522401      4.75787855      3.31846676
    O     -3.54551520     -4.29608115      4.61821332      6.57900418
    O     -2.31411377     -3.00771842      5.96334513      6.50231628
    C     -1.54681471     -1.31522982      3.94017062      4.07592179
    C     -1.15103600     -0.48318208      2.89001967      4.13585446
    C     -1.54495473     -0.74367810      1.56724056      3.84440060
    N     -1.12949559      0.13310198      0.54210509      5.06423135
    N      0.00000000      0.00000000      0.00000000      5.07669652
    C      0.87051358     -1.02818555      0.40780729      3.82043714
    C      0.80820270     -2.28501569     -0.19389261      4.12883709
    C      1.68690118     -3.29429322      0.20165593      4.09006437
    C      1.56172821     -4.62017425     -0.43995942      3.31485898
    O      0.48694090     -5.12526278     -0.70971467      6.52362550
    O      2.75215944     -5.18401390     -0.73018929      6.48444676
    C      2.63278604     -3.05715251      1.20689418      4.15171617
    C      2.74082308     -1.78854399      1.79778525      3.92977844
    C      3.73923504     -1.52345122      2.84474103      3.95656485
    C      3.79866990     -2.31499195      4.00399642      4.09903888
    C      4.74742730     -2.06412709      4.99876287      4.07237437
    C      5.65297238     -1.01688380      4.85048921      4.07663130
    C      5.60979207     -0.21942592      3.70987402      4.07287908
    C      4.66008551     -0.47038791      2.71596445      4.10167808
    C      1.86093482     -0.78015527      1.36843679      4.15289885
    H     -3.98438180     -2.39625262     -0.03055710      0.91109051
    H     -2.83148882     -1.27801980     -0.74491730      0.91741614
    H     -2.36629988     -2.97521458     -0.49136480      0.89756053
    H     -3.44756590     -3.51682014      2.17457657      0.88900849
    H     -2.69015189     -3.68689114      6.56216056      0.62518276
    H     -1.21176189     -1.09259251      4.95016243      0.89958795
    H     -0.52034093      0.37800587      3.09899057      0.91294690
    H      0.06653695     -2.47586734     -0.96646394      0.89392078
    H      3.52524727     -4.60016849     -0.61426884      0.64445955
    H      3.28356677     -3.86239975      1.54376539      0.91538806
    H      3.09240856     -3.13030206      4.14980344      0.91792847
    H      4.77549629     -2.68475417      5.89093237      0.91857611
    H      6.39065605     -0.82099045      5.62454067      0.92030455
    H      6.31585200      0.59876735      3.59186283      0.91937659
    H      4.65110222      0.16216373      1.83031786      0.92137668
    H      1.91764999      0.21382218      1.80957404      0.90926694
   43
Geometry Step: 1
    C     -2.92842843     -2.12404001     -0.07880259      4.24848968
    C     -2.43581389     -1.84662891      1.31522246      3.97538690
    C     -2.79235731     -2.63975208      2.34671394      4.06136915
    C     -2.38641734     -2.44286366      3.67046789      4.06963739
    C     -2.77252113     -3.27151880      4.71449123      3.34703826
    O     -3.58138372     -4.34313298      4.61624398      6.62157701
    O     -2.33003563     -3.04716487      6.03039367      6.52462387
    C     -1.53257704     -1.28467990      3.92810240      4.08376122
    C     -1.14450750     -0.48098821      2.91079905      4.10415512
    C     -1.54713870     -0.78511007      1.62197802      3.87375690
    N     -1.14175951      0.16875854      0.49479630      5.07095020
    N     -0.01992634      0.05533133     -0.02405869      5.08505037
    C      0.90588440     -1.07000182      0.44198688      3.85285948
    C      0.78984332     -2.28310622     -0.20973983      4.11932804
    C      1.68426600     -3.26809789      0.21822629      4.08153592
    C      1.55232469     -4.60736272     -0.43954591      3.35043505
    O      0.48826302     -5.14833763     -0.72016684      6.48709280
    O      2.79257618     -5.22473195     -0.75318160      6.51153737
    C      2.64194823     -3.05688347      1.21617073      4.13704509
    C      2.70941671     -1.78897360      1.76796405      3.94271420
    C      3.76723273     -1.51538965      2.87458903      3.97534450
    C      3.80193703     -2.32553103      4.01303006      4.09414406
    C      4.73796882     -2.06758919      4.99219133      4.06580156
    C      5.66109895     -1.01470629      4.85898108      4.08949251
    C      5.60335742     -0.21981739      3.70005550      4.06662163
    C      4.66621429     -0.45785612      2.71730933      4.09609947
    C      1.87188536     -0.76034365      1.37623042      4.13035725
    H     -3.97239189     -2.40118269     -0.03217781      0.90564138
    H     -2.82508762     -1.28489551     -0.73819210      0.90637358
    H     -2.37300699     -2.97179238     -0.49521863      0.89899974
    H     -3.44456262     -3.51249099      2.17814755      0.89314368
    H     -2.67141281     -3.66407861      6.56913313      0.61007829
    H     -1.21446955     -1.09596620      4.94972036      0.89688006
    H     -0.51865203      0.37659639      3.09728291      0.90691431
    H      0.06760269     -2.48112123     -0.96345343      0.88018282
    H      3.49931596     -4.60838356     -0.60873794      0.64603508
    H      3.28340258     -3.86247165      1.54182000      0.90341288
    H      3.09143746     -3.12921816      4.14463541      0.91446047
    H      4.77446647     -2.68526020      5.89033520      0.92193297
    H      6.39103687     -0.82091431      5.62477661      0.91194150
    H      6.31539617      0.59885318      3.59059902      0.92299418
    H      4.64701511      0.15968241      1.82890478      0.91816802
    H      1.91908157      0.21092143      1.81235757      0.89663606
   43
Geometry Step: 2
    C     -2.92332425     -2.13068579     -0.07090042      4.24688715
    C     -2.41939592     -1.82790634      1.31322614      3.98747391
    C     -2.79708311     -2.65783318      2.36655919      4.07909507
    C     -2.37149794     -2.42280831      3.67943172      4.08444611
    C     -2.80250798     -3.31955359      4.74720599      3.32294081
    O     -3.55433826     -4.30765512      4.61772889      6.59407147
    O     -2.31803028     -3.01742159      5.97983796      6.50756789
    C     -1.54331248     -1.30771505      3.93720204      4.07874442
    C     -1.14943010     -0.48264242      2.89513105      4.12734428
    C     -1.54549195     -0.75386968      1.58070507      3.85199601
    N     -1.13251231      0.14187290      0.53046792      5.06668153
    N     -0.00490155      0.01361059     -0.00591804      5.07929824
    C      0.87921421     -1.03847165      0.41621490      3.82884464
    C      0.80368660     -2.28454599     -0.19779076      4.12603816
    C      1.68625297     -3.28784960      0.20573196      4.08847648
    C      1.55941510     -4.61702282     -0.43985770      3.32334657
    O      0.48726612     -5.13093881     -0.71228573      6.51444010
    O      2.76210129     -5.19402986     -0.73584502      6.49139623
    C      2.63503978     -3.05708633      1.20917606      4.14748006
    C      2.73309764     -1.78864967      1.79044973      3.93339632
    C      3.74612201     -1.52146821      2.85208314      3.96121526
    C      3.79947356     -2.31758439      4.00621855      4.09782108
    C      4.74510067     -2.06497871      4.99714638      4.07080472
    C      5.65497138     -1.01634817      4.85257807      4.07973319
    C      5.60820926     -0.21952221      3.70745883      4.07137721
    C      4.66159309     -0.46730530      2.71629527      4.10024709
    C      1.86362847     -0.77528194      1.37035389      4.14672436
    H     -3.98143248     -2.39746534     -0.03095576      0.90973159
    H     -2.82991423     -1.27971111     -0.74326301      0.91452031
    H     -2.36794972     -2.97437277     -0.49231277      0.89788290
    H     -3.44682714     -3.51575524      2.17545497      0.88972369
    H     -2.68554239     -3.68127964      6.56387570      0.62059847
    H     -1.21242793     -1.09342238      4.95005369      0.89886380
    H     -0.51992549      0.37765917      3.09857052      0.91143558
    H      0.06679911     -2.47715971     -0.96572340      0.89044509
    H      3.51886860     -4.60218926     -0.61290833      0.64492188
    H      3.28352638     -3.86241743      1.54328686      0.91240384
    H      3.09216969     -3.13003544      4.14853219      0.91708438
    H      4.77524297     -2.68487864      5.89078548      0.91938880
    H      6.39074972     -0.82097172      5.62459870      0.91820296
    H      6.31573987      0.59878846      3.59155196      0.92024464
    H      4.65009686      0.16155337      1.82997026      0.92056858
    H      1.91800214      0.21310864      1.81025874      0.90609513
   43
Geometry Step: 3
    C     -2.92535452     -2.12893747     -0.07414830      4.24761852
    C     -2.42408319     -1.83040070      1.30864012      3.98284539
    C     -2.80184159     -2.65900550      2.36132689      4.08372371
    C     -2.36852150     -2.41713929      3.67083731      4.08596034
    C     -2.80909533     -3.32866492      4.74235518      3.32223081
    O     -3.54688986     -4.29727622      4.61909259      6.57167846
    O     -2.32034272     -3.02232880      5.98828204      6.52279888
    C     -1.54525272     -1.30719369      3.93759520      4.07643936
    C     -1.14417921     -0.47818811      2.90276217      4.12576946
    C     -1.54458101     -0.76649568      1.58955621      3.85949792
    N     -1.14464806      0.15144505      0.51854136      5.07209048
    N     -0.00452562      0.03178753     -0.01571756      5.08371996
    C      0.88093832     -1.04191415      0.42550111      3.83294914
    C      0.79996417     -2.28453704     -0.20022588      4.12398679
    C      1.68405789     -3.28266545      0.20960497      4.08701603
    C      1.55814414     -4.61802704     -0.44285216      3.33148754
    O      0.49402270     -5.13952335     -0.71620977      6.50417999
    O      2.76844324     -5.21216460     -0.74540390      6.49647650
    C      2.63604223     -3.05660119      1.21061857      4.14603072
    C      2.73208583     -1.78580831      1.79043677      3.93507566
    C      3.75053742     -1.51990608      2.85699162      3.96321287
    C      3.80034509     -2.32207704      4.00883625      4.09873354
    C      4.74562100     -2.06484654      4.99856367      4.07008126
    C      5.65470153     -1.01639912      4.85230956      4.07908892
    C      5.60963692     -0.21899844      3.70821354      4.07065095
    C      4.66315928     -0.46216818      2.71624739      4.10114936
    C      1.86834757     -0.76849157      1.37283074      4.14367591
    H     -3.97675689     -2.40036538     -0.03232932      0.90902720
    H     -2.82621725     -1.28107803     -0.74104975      0.91208670
    H     -2.37179250     -2.97210271     -0.49453104      0.89868521
    H     -3.44443212     -3.51198121      2.17696369      0.88989794
    H     -2.68457289     -3.68432448      6.57825743      0.62165237
    H     -1.21373163     -1.09485380      4.94991862      0.89860087
    H     -0.51814267      0.37804400      3.09782442      0.90818758
    H      0.06488804     -2.48014731     -0.96639957      0.88873525
    H      3.51080135     -4.60373445     -0.60957663      0.64696457
    H      3.28412097     -3.86283395      1.54278178      0.91108044
    H      3.09105458     -3.13026472      4.14576674      0.91566170
    H      4.77451257     -2.68506602      5.89011989      0.91936983
    H      6.39197119     -0.82066440      5.62579605      0.91881706
    H      6.31522138      0.59863413      3.59071323      0.92020782
    H      4.64777153      0.16071056      1.82859861      0.91910149
    H      1.91909429      0.21431335      1.81294103      0.90375549
   43
Geometry Step: 4
    C     -2.92481506     -2.12940202     -0.07328531      4.24742030
    C     -2.42283774     -1.82973793      1.30985867      3.98406276
    C     -2.80057722     -2.65869400      2.36271716      4.08249442
    C     -2.36931237     -2.41864560      3.67312092      4.08555331
    C     -2.80734501     -3.32624396      4.74364409      3.32231766
    O     -3.54886897     -4.30003399      4.61873025      6.57774975
    O     -2.31972828     -3.02102491      5.98603837      6.51870377
    C     -1.54473718     -1.30733222      3.93749073      4.07706294
    C     -1.14557442     -0.47937166      2.90073452      4.12618059
    C     -1.54482305     -0.76314084      1.58720438      3.85750176
    N     -1.14142349      0.14890164      0.52171035      5.07070029
    N     -0.00462550      0.02695776     -0.01311374      5.08258378
    C      0.88048021     -1.04099945      0.42303368      3.83186282
    C      0.80095325     -2.28453942     -0.19957885      4.12451900
    C      1.68464114     -3.28404293      0.20857588      4.08743570
    C      1.55848185     -4.61776021     -0.44205651      3.32930381
    O      0.49222741     -5.13724236     -0.71516712      6.50690438
    O      2.76675812     -5.20734604     -0.74286402      6.49512282
    C      2.63577587     -3.05673009      1.21023528      4.14639141
    C      2.73235467     -1.78656328      1.79044021      3.93464035
    C      3.74936420     -1.52032115      2.85568740      3.96267928
    C      3.80011352     -2.32088330      4.00814070      4.09849258
    C      4.74548274     -2.06488166      4.99818708      4.07027367
    C      5.65477323     -1.01638558      4.85238090      4.07925820
    C      5.60925758     -0.21913761      3.70801300      4.07084526
    C      4.66274313     -0.46353316      2.71626011      4.10091111
    C      1.86709366     -0.77029583      1.37217262      4.14446305
    H     -3.97799923     -2.39959481     -0.03196435      0.90921763
    H     -2.82719957     -1.28071483     -0.74163783      0.91272715
    H     -2.37077144     -2.97270589     -0.49394163      0.89847548
    H     -3.44506850     -3.51298400      2.17656281      0.88984997
    H     -2.68483049     -3.68351544      6.57443608      0.62137971
    H     -1.21338523     -1.09447346      4.94995451      0.89867468
    H     -0.51861638      0.37794175      3.09802267      0.90903914
    H      0.06539583     -2.47935348     -0.96621991      0.88918690
    H      3.51294489     -4.60332388     -0.61046190      0.64643327
    H      3.28396299     -3.86272327      1.54291598      0.91143164
    H      3.09135088     -3.13020380      4.14650155      0.91603948
    H      4.77470664     -2.68501623      5.89029674      0.91937590
    H      6.39164663     -0.82074606      5.62547790      0.91865407
    H      6.31535915      0.59867514      3.59093609      0.92021837
    H      4.64838939      0.16093451      1.82896307      0.91948981
    H      1.91880410      0.21399325      1.81222832      0.90437205
   43
Geometry Step: 5
    C     -2.92439691     -2.12990659     -0.07447981      4.24739010
    C     -2.42311499     -1.82787220      1.30586356      3.98449369
    C     -2.80467145     -2.66157579      2.36320793      4.08544984
    C     -2.36633411     -2.41372945      3.66917521      4.08550262
    C     -2.80726064     -3.32864017      4.74918104      3.32134105
    O     -3.54691021     -4.29640920      4.61665272      6.57699763
    O     -2.31952691     -3.01907844      5.98155178      6.51187250
    C     -1.54750483     -1.31025827      3.94192371      4.07796765
    C     -1.14405743     -0.47908659      2.90010319      4.12794748
    C     -1.54038946     -0.76145772      1.58055201      3.85954572
    N     -1.14230418      0.14767506      0.51620372      5.06834589
    N     -0.00988030      0.03370116     -0.01131335      5.07846378
    C      0.87013687     -1.02946833      0.42244728      3.83202160
    C      0.80155559     -2.28189400     -0.19550710      4.12348758
    C      1.68323780     -3.28968563      0.20678927      4.08885110
    C      1.56445396     -4.62416697     -0.44633168      3.32825080
    O      0.49802842     -5.14329903     -0.71824836      6.51073573
    O      2.76243416     -5.21550313     -0.74750852      6.48779463
    C      2.63412763     -3.05379216      1.21038439      4.14729884
    C      2.74127714     -1.78381809      1.79977326      3.93221359
    C      3.74731663     -1.52044454      2.85365986      3.95964873
    C      3.80192869     -2.32141495      4.00791627      4.09925857
    C      4.74749076     -2.06479293      5.00119053      4.07124818
    C      5.65391107     -1.01660626      4.85155901      4.07702364
    C      5.61216063     -0.21783013      3.71017158      4.07178159
    C      4.66251453     -0.46232665      2.71792757      4.10168164
    C      1.86915885     -0.76945755      1.37194039      4.14664373
    H     -3.97668755     -2.40253234     -0.03375770      0.90938300
    H     -2.82383647     -1.27930477     -0.74166688      0.91349594
    H     -2.37390048     -2.97092257     -0.49646702      0.89792819
    H     -3.44533918     -3.51231115      2.17714848      0.88801538
    H     -2.68713437     -3.69151279      6.59092997      0.62394846
    H     -1.21498695     -1.09617918      4.95052536      0.89802332
    H     -0.51488673      0.38111684      3.09816874      0.91004700
    H      0.06205568     -2.48198727     -0.96823726      0.89227091
    H      3.50866382     -4.60522570     -0.60788056      0.64808915
    H      3.28476547     -3.86313598      1.54266766      0.91448942
    H      3.08956352     -3.13168518      4.14427130      0.91661974
    H      4.77426989     -2.68541313      5.89037443      0.91827930
    H      6.39248931     -0.82054415      5.62629831      0.92014817
    H      6.31551597      0.59899126      3.59035644      0.91906046
    H      4.64632014      0.16114087      1.82683070      0.92002573
    H      1.92026858      0.21840345      1.81603343      0.90691795
   43
Geometry Step: 6
    C     -2.92449036     -2.12979383     -0.07421286      4.24739856
    C     -2.42305303     -1.82828916      1.30675641      3.98439537
    C     -2.80375645     -2.66093175      2.36309825      4.08479181
    C     -2.36699971     -2.41482814      3.67005702      4.08551017
    C     -2.80727950     -3.32810465      4.74794361      3.32153951
    O     -3.54734797     -4.29721929      4.61711702      6.57717401
    O     -2.31957192     -3.01951345      5.98255447      6.51341782
    C     -1.54688630     -1.30960434      3.94093300      4.07776950
    C     -1.14439646     -0.47915030      2.90024428      4.12754728
    C     -1.54138031     -0.76183387      1.58203872      3.85909530
    N     -1.14210736      0.14794919      0.51743437      5.06887255
    N     -0.00870593      0.03219411     -0.01171571      5.07938306
    C      0.87244846     -1.03204537      0.42257833      3.83200159
    C      0.80142097     -2.28248521     -0.19641707      4.12371336
    C      1.68355143     -3.28842457      0.20718855      4.08854417
    C      1.56311928     -4.62273515     -0.44537624      3.32848668
    O      0.49673198     -5.14194545     -0.71755975      6.50987597
    O      2.76340050     -5.21368014     -0.74647054      6.48942971
    C      2.63449599     -3.05444875      1.21035106      4.14708874
    C      2.73928309     -1.78443160      1.79768745      3.93276862
    C      3.74777423     -1.52041696      2.85411299      3.96032000
    C      3.80152302     -2.32129613      4.00796643      4.09908767
    C      4.74704200     -2.06481276      5.00051931      4.07103263
    C      5.65410375     -1.01655694      4.85174269      4.07752306
    C      5.61151184     -0.21812233      3.70968917      4.07157419
    C      4.66256562     -0.46259629      2.71755491      4.10150976
    C      1.86869731     -0.76964490      1.37199229      4.14614470
    H     -3.97698069     -2.40187584     -0.03335691      0.90934669
    H     -2.82458807     -1.27961990     -0.74166039      0.91332623
    H     -2.37320118     -2.97132111     -0.49590263      0.89805070
    H     -3.44527869     -3.51246152      2.17701759      0.88842343
    H     -2.68661948     -3.68972549      6.58724382      0.62335396
    H     -1.21462899     -1.09579798      4.95039779      0.89816933
    H     -0.51572025      0.38040726      3.09813609      0.90982392
    H      0.06280216     -2.48139866     -0.96778641      0.89157921
    H      3.50962058     -4.60480067     -0.60845745      0.64772107
    H      3.28458613     -3.86304375      1.54272316      0.91380759
    H      3.08996297     -3.13135411      4.14476973      0.91648999
    H      4.77436750     -2.68532443      5.89035707      0.91852355
    H      6.39230099     -0.82058927      5.62611496      0.91981348
    H      6.31548093      0.59892061      3.59048598      0.91931833
    H      4.64678258      0.16109475      1.82730725      0.91990605
    H      1.91994129      0.21741783      1.81518304      0.90635067
   43
Geometry Step: 7
    C     -2.92413574     -2.12939410     -0.07580643      4.24772469
    C     -2.42286848     -1.82780645      1.30683216      3.98545833
    C     -2.80398674     -2.65782825      2.36086903      4.08192151
    C     -2.36854458     -2.41738148      3.67130914      4.08523569
    C     -2.80244655     -3.32261035      4.74942816      3.32115642
    O     -3.54998205     -4.29965601      4.61404040      6.58579771
    O     -2.32281312     -3.02517141      5.98797420      6.51071919
    C     -1.54630539     -1.30689788      3.94048741      4.07885477
    C     -1.14418939     -0.48092975      2.89782142      4.12638858
    C     -1.53746801     -0.75921359      1.57621490      3.85625405
    N     -1.14914122      0.14687134      0.51603886      5.06770062
    N     -0.00838655      0.03729638     -0.01201606      5.07939021
    C      0.86704831     -1.02346048      0.42334463      3.83024836
    C      0.79945957     -2.27883402     -0.19336365      4.12375141
    C      1.68346793     -3.29159459      0.20632313      4.09118810
    C      1.56856579     -4.62984775     -0.44970797      3.32841309
    O      0.50063155     -5.14878432     -0.72124525      6.51246608
    O      2.76256782     -5.21804290     -0.75010175      6.48369651
    C      2.63400148     -3.05210303      1.21164801      4.14622758
    C      2.74137214     -1.78289082      1.80010524      3.93268936
    C      3.74978220     -1.51951666      2.85623232      3.95963201
    C      3.80361929     -2.32138672      4.00759839      4.09822642
    C      4.74705546     -2.06528914      5.00114252      4.07099334
    C      5.65553068     -1.01615486      4.85332891      4.07857324
    C      5.61216053     -0.21737016      3.70973272      4.07153222
    C      4.66227776     -0.46172255      2.71964938      4.10059699
    C      1.86936045     -0.76824497      1.37136683      4.14625275
    H     -3.97645590     -2.40497568     -0.03553929      0.90923938
    H     -2.82119099     -1.27783828     -0.74217676      0.91341821
    H     -2.37565674     -2.97043832     -0.49925643      0.89781284
    H     -3.44753347     -3.51413081      2.17739204      0.88836989
    H     -2.68455521     -3.68989994      6.59713060      0.62237993
    H     -1.21636571     -1.09781977      4.95252240      0.89806143
    H     -0.51196273      0.38330542      3.09832995      0.91157855
    H      0.06088081     -2.48353535     -0.96796964      0.89260526
    H      3.50356168     -4.60983521     -0.60638233      0.64779069
    H      3.28470762     -3.86246876      1.54205165      0.91521703
    H      3.08874081     -3.13248722      4.14239850      0.91711625
    H      4.77419257     -2.68618565      5.89148186      0.91854448
    H      6.39253238     -0.82056091      5.62630304      0.91899763
    H      6.31657031      0.60001714      3.59007350      0.91933470
    H      4.64468925      0.16112008      1.82577343      0.92051597
    H      1.92173419      0.22145750      1.81900171      0.90792856
   43
Geometry Step: 8
    C     -2.92415534     -2.12941619     -0.07571838      4.24770608
    C     -2.42287867     -1.82783312      1.30682798      3.98540169
    C     -2.80397401     -2.65799971      2.36099219      4.08207692
    C     -2.36845923     -2.41724041      3.67123996      4.08525037
    C     -2.80271357     -3.32291390      4.74934614      3.32117401
    O     -3.54983652     -4.29952138      4.61421038      6.58532940
    O     -2.32263405     -3.02485881      5.98767476      6.51086380
    C     -1.54633749     -1.30704741      3.94051203      4.07879801
    C     -1.14420083     -0.48083144      2.89795528      4.12645328
    C     -1.53768416     -0.75935836      1.57653666      3.85641086
    N     -1.14875261      0.14693089      0.51611596      5.06776749
    N     -0.00840419      0.03701449     -0.01199947      5.07938694
    C      0.86734666     -1.02393478      0.42330229      3.83034278
    C      0.79956794     -2.27903574     -0.19353235      4.12374750
    C      1.68347254     -3.29141945      0.20637095      4.09104297
    C      1.56826488     -4.62945479     -0.44946865      3.32841894
    O      0.50041610     -5.14840648     -0.72104163      6.51231989
    O      2.76261382     -5.21780186     -0.74990113      6.48401254
    C      2.63402880     -3.05223263      1.21157635      4.14627725
    C      2.74125672     -1.78297595      1.79997166      3.93269525
    C      3.74967126     -1.51956640      2.85611523      3.95967165
    C      3.80350347     -2.32138171      4.00761873      4.09827498
    C      4.74705472     -2.06526282      5.00110808      4.07099579
    C      5.65545184     -1.01617707      4.85324127      4.07851495
    C      5.61212469     -0.21741172      3.70973031      4.07153362
    C      4.66229367     -0.46177082      2.71953366      4.10064637
    C      1.86932381     -0.76832232      1.37140139      4.14624624
    H     -3.97648489     -2.40480441     -0.03541872      0.90924521
    H     -2.82137868     -1.27793672     -0.74214823      0.91341324
    H     -2.37552107     -2.97048709     -0.49907114      0.89782519
    H     -3.44740890     -3.51403858      2.17737135      0.88837205
    H     -2.68466926     -3.68989031      6.59658436      0.62243386
    H     -1.21626976     -1.09770807      4.95240502      0.89806845
    H     -0.51217033      0.38314530      3.09831924      0.91148125
    H      0.06098696     -2.48341730     -0.96795952      0.89254860
    H      3.50389643     -4.60955706     -0.60649698      0.64778755
    H      3.28470090     -3.86250053      1.54208875      0.91513996
    H      3.08880833     -3.13242462      4.14252950      0.91708198
    H      4.77420223     -2.68613807      5.89141972      0.91854327
    H      6.39251959     -0.82056248      5.62629265      0.91904222
    H      6.31651012      0.59995656      3.59009629      0.91933358
    H      4.64480490      0.16111868      1.82585818      0.92048211
    H      1.92163513      0.22123431      1.81879073      0.90784191
   43
Geometry Step: 9
    C     -2.92421760     -2.12818673     -0.07724325      4.24765108
    C     -2.42125200     -1.82579006      1.30605094      3.98549982
    C     -2.80434777     -2.65580205      2.36057945      4.08216150
    C     -2.36868104     -2.41778180      3.67363327      4.08680045
    C     -2.80466587     -3.32625044      4.75039404      3.31972673
    O     -3.54740089     -4.29527222      4.61151160      6.57797935
    O     -2.32584541     -3.03134293      5.99583288      6.51748928
    C     -1.54670208     -1.30557000      3.93765339      4.07774632
    C     -1.14164243     -0.47964740      2.89424220      4.12679521
    C     -1.53666825     -0.75938098      1.57340167      3.85571216
    N     -1.15255574      0.14656787      0.51249643      5.06654534
    N     -0.01247950      0.04385955     -0.01127224      5.08045111
    C      0.86751922     -1.02042691      0.42550792      3.83181402
    C      0.79644268     -2.27683088     -0.19119797      4.12288397
    C      1.68321217     -3.28997832      0.20634400      4.09293256
    C      1.57041271     -4.63559844     -0.45341457      3.33043937
    O      0.50423545     -5.15640012     -0.72548294      6.51091790
    O      2.76403708     -5.22291258     -0.75417998      6.48236287
    C      2.63382708     -3.05188402      1.21247514      4.14535384
    C      2.73847659     -1.78132568      1.79797183      3.93435169
    C      3.75278838     -1.51824430      2.85939397      3.96066408
    C      3.80468554     -2.32292762      4.00790820      4.09815929
    C      4.74755340     -2.06529293      5.00143085      4.07043359
    C      5.65654650     -1.01583275      4.85447484      4.07909475
    C      5.61261300     -0.21700971      3.71036089      4.07097269
    C      4.66236124     -0.45955161      2.72046668      4.10054950
    C      1.86925521     -0.76390077      1.37174315      4.14468030
    H     -3.97596808     -2.40799162     -0.03817909      0.90929645
    H     -2.81774001     -1.27599746     -0.74280146      0.91336728
    H     -2.37748941     -2.97020480     -0.50338080      0.89848034
    H     -3.44964490     -3.51508582      2.17764477      0.88950483
    H     -2.68181251     -3.68862569      6.60520295      0.62213772
    H     -1.21817014     -1.09970509      4.95495107      0.89907852
    H     -0.50956439      0.38400582      3.09794278      0.91126614
    H      0.06027040     -2.48494971     -0.96619616      0.89241627
    H      3.49847752     -4.61558122     -0.60408749      0.64759209
    H      3.28443737     -3.86093701      1.54118530      0.91479365
    H      3.08864993     -3.13263221      4.13963002      0.91664174