   35
Geometry Step: 0
    C      6.15502489     -1.65959948      3.33738119      3.95721393
    O      5.79739402     -0.52412715      2.55733679      6.30318085
    C      4.64222243     -0.60005742      1.83378210      3.69470479
    C      3.80451926     -1.70556503      1.73894812      4.19368983
    C      2.63767283     -1.65030487      0.95361790      3.95984144
    C      1.85652239     -2.84930879      0.84294501      3.83364355
    N      1.27125838     -3.85184024      0.81291840      5.25632807
    C      2.26865086     -0.46976012      0.27994112      3.88072456
    N      1.08160982     -0.42828031     -0.48604121      5.00277732
    N      0.00000000      0.00000000      0.00000000      5.06633868
    C     -1.18647035      0.04260858     -0.76213102      3.83129080
    C     -1.52133728      1.21931027     -1.44989527      4.12434538
    C     -2.69848072      1.31112556     -2.19734976      4.06108147
    C     -3.54841005      0.21261972     -2.29587362      4.09933782
    C     -3.20587986     -0.98556118     -1.67170136      4.07083263
    C     -2.01902719     -1.07454145     -0.92708052      4.11212836
    C     -1.63006690     -2.37484025     -0.35698570      3.33280434
    O     -0.53093213     -2.88810613     -0.38980848      6.54200674
    O     -2.67011021     -2.93876544      0.28494003      6.49958363
    C      3.16403430      0.61571620      0.32731325      4.11609601
    C      2.92924827      1.82463816     -0.49691715      3.31797950
    O      2.34161454      1.89446251     -1.55688513      6.56865483
    O      3.45051564      2.92698126      0.07479731      6.49781694
    C      4.32660021      0.55082496      1.11520997      4.16905465
    H      6.35238894     -2.52742449      2.69963700      0.94630714
    H      5.38595379     -1.88376236      4.08394239      0.94710874
    H      7.07959464     -1.42057577      3.87152574      0.93738869
    H      4.03944767     -2.63359846      2.25490014      0.90171763
    H     -0.85016610      2.07415728     -1.40584088      0.90386250
    H     -2.94473889      2.23867123     -2.70945153      0.91599341
    H     -4.46299696      0.28083976     -2.88060661      0.91636033
    H     -3.85018212     -1.85517150     -1.78287136      0.90698429
    H     -2.25863580     -3.69815529      0.75735045      0.62495312
    H      3.24471324      3.64176176     -0.56541138      0.62579264
    H      5.00922804      1.39841679      1.15797613      0.88207539
   35
Geometry Step: 1
    C      6.17229149     -1.64286398      3.34030652      3.94193412
    O      5.79507976     -0.55122664      2.57107364      6.27108228
    C      4.66910773     -0.57020585      1.84093766      3.70282479
    C      3.79463901     -1.74450650      1.74282354      4.21237272
    C      2.64825559     -1.67004685      0.96217790      3.93493823
    C      1.83196679     -2.89672245      0.85616158      3.83515193
    N      1.31808380     -3.83055724      0.83152106      5.23554975
    C      2.26662839     -0.47464215      0.31481239      3.89832808
    N      1.08730423     -0.44863957     -0.55504556      5.00858673
    N      0.00354760      0.01880472      0.07590447      5.10624864
    C     -1.17922071      0.05378669     -0.85037305      3.83847202
    C     -1.53069883      1.25683630     -1.44634922      4.10467712
    C     -2.68177966      1.31399947     -2.18561078      4.05661569
    C     -3.56323565      0.20407396     -2.30163480      4.10183841
    C     -3.20992450     -0.96743880     -1.67144634      4.06391605
    C     -2.02519433     -1.07441555     -0.94340014      4.08243062
    C     -1.66077369     -2.32667132     -0.36283894      3.34583688
    O     -0.52644372     -2.90333071     -0.41045361      6.55239758
    O     -2.65478267     -3.02562715      0.33951308      6.53468372
    C      3.17720973      0.62218522      0.31822715      4.06209656
    C      2.94457396      1.79295190     -0.42837157      3.34846088
    O      2.30619003      1.89488943     -1.61353331      6.61160542
    O      3.45300632      2.99907074      0.03851113      6.50196840
    C      4.31495004      0.57687239      1.09138184      4.18382723
    H      6.34630003     -2.53664967      2.69732996      0.95486117
    H      5.37788164     -1.89102366      4.08366107      0.95635460
    H      7.07910408     -1.41661536      3.86920051      0.93130922
    H      4.03809444     -2.63231188      2.25258114      0.88917718
    H     -0.84981341      2.07263229     -1.40363487      0.88911769
    H     -2.94219465      2.23741515     -2.70940284      0.91978991
    H     -4.46186542      0.28031281     -2.87971146      0.90575531
    H     -3.84483765     -1.85598804     -1.77966472      0.91128660
    H     -2.29496606     -3.69081641      0.74803906      0.61224917
    H      3.25974492      3.64294331     -0.53739988      0.61201648
    H      5.00255099      1.39631369      1.15431944      0.88223881
   35
Geometry Step: 2
    C      6.15863930     -1.65609625      3.33799355      3.95393243
    O      5.79690958     -0.52979988      2.56021232      6.29667420
    C      4.64785033     -0.59380860      1.83527997      3.69592919
    C      3.80245103     -1.71371664      1.73975936      4.19801300
    C      2.63988812     -1.65443745      0.95540976      3.95429769
    C      1.85138217     -2.85923388      0.84571163      3.83339201
    N      1.28106033     -3.84738508      0.81681249      5.25111221
    C      2.26822750     -0.47078207      0.28724072      3.88395872
    N      1.08280183     -0.43254211     -0.50048588      5.00527977
    N      0.00074262      0.00393639      0.01588906      5.07678254
    C     -1.18495279      0.04494849     -0.78060270      3.83196956
    C     -1.52329693      1.22716558     -1.44915297      4.11939443
    C     -2.69498469      1.31172715     -2.19489244      4.06055422
    C     -3.55151349      0.21083084     -2.29707961      4.09946667
    C     -3.20672652     -0.98176762     -1.67164798      4.06962835
    C     -2.02031816     -1.07451510     -0.93049670      4.10532323
    C     -1.63649474     -2.36475706     -0.35821096      3.33478146
    O     -0.52999258     -2.89129309     -0.39413012      6.54570205
    O     -2.66690170     -2.95694818      0.29636380      6.50729873
    C      3.16679231      0.61707036      0.32541126      4.10323934
    C      2.93245639      1.81800528     -0.48256852      3.32267260
    O      2.33419914      1.89455187     -1.56874328      6.58196050
    O      3.45103701      2.94207173      0.06720153      6.49839531
    C      4.32416148      0.55627746      1.11022204      4.17306153
    H      6.35111435     -2.52935559      2.69915407      0.94809583
    H      5.38426405     -1.88528237      4.08388350      0.94904756
    H      7.07949195     -1.41974674      3.87103900      0.93608570
    H      4.03916440     -2.63332914      2.25441471      0.89901314
    H     -0.85009227      2.07383805     -1.40537909      0.90058167
    H     -2.94420631      2.23840829     -2.70944134      0.91671195
    H     -4.46276009      0.28072945     -2.88041923      0.91407186
    H     -3.84906336     -1.85534242     -1.78220012      0.90785145
    H     -2.26624081     -3.69661905      0.75540130      0.62149151
    H      3.24785982      3.64200910     -0.55954774      0.62210198
    H      5.00783034      1.39797655      1.15721068      0.88212761
   35
Geometry Step: 3
    C      6.16176732     -1.65400939      3.33891855      3.95032822
    O      5.79698413     -0.53579216      2.56403365      6.29497582
    C      4.64964195     -0.59008810      1.83532029      3.69498088
    C      3.80485958     -1.71722375      1.74104029      4.20065428
    C      2.64010135     -1.66322645      0.95742526      3.95003930
    C      1.85882796     -2.84922291      0.85148746      3.82960961
    N      1.28401149     -3.86380154      0.82290228      5.25612362
    C      2.26791070     -0.47271085      0.29606663      3.89071206
    N      1.07429886     -0.43370812     -0.51423106      5.00983945
    N      0.01037506      0.00486805      0.03007726      5.08217233
    C     -1.17880865      0.04640792     -0.80470173      3.83759297
    C     -1.52524631      1.23826128     -1.44775163      4.11697203
    C     -2.69475457      1.31224929     -2.19403557      4.06035098
    C     -3.55281174      0.21191430     -2.29833393      4.09709562
    C     -3.21047043     -0.97840131     -1.67227631      4.06922096
    C     -2.02152606     -1.07025097     -0.93643274      4.10230033
    C     -1.63816585     -2.36168738     -0.35537412      3.33502064
    O     -0.53950514     -2.88999893     -0.40199358      6.53773605
    O     -2.66558190     -2.97098945      0.30496500      6.51552930
    C      3.16732601      0.61540919      0.32329531      4.09921536
    C      2.92599676      1.81935261     -0.48411906      3.32245536
    O      2.33437671      1.89236284     -1.56449543      6.57099950
    O      3.45260351      2.95221444      0.06115205      6.50661126
    C      4.32524072      0.56134053      1.10743029      4.17379114
    H      6.34899821     -2.53171349      2.69919086      0.95014308
    H      5.38255003     -1.88765201      4.08311130      0.95111664
    H      7.08076450     -1.41772136      3.87091570      0.93557791
    H      4.03925606     -2.63548228      2.25488356      0.89803231
    H     -0.84906229      2.07513906     -1.40443239      0.89885102
    H     -2.94325655      2.23775215     -2.70913511      0.91772855
    H     -4.46339588      0.28062839     -2.88076778      0.91371168
    H     -3.84691714     -1.85494397     -1.78082512      0.90748440
    H     -2.27191709     -3.70561663      0.75881713      0.62050945
    H      3.25027099      3.65028433     -0.55796190      0.62180800
    H      5.00603731      1.39884494      1.15544664      0.88070990
   35
Geometry Step: 4
    C      6.16163711     -1.65409627      3.33888004      3.95047674
    O      5.79698103     -0.53554271      2.56387457      6.29504550
    C      4.64956736     -0.59024298      1.83531861      3.69501715
    C      3.80475931     -1.71707775      1.74098696      4.20054738
    C      2.64009247     -1.66286057      0.95734136      3.95022288
    C      1.85851800     -2.84963966      0.85124701      3.82975897
    N      1.28388863     -3.86311814      0.82264877      5.25591718
    C      2.26792389     -0.47263056      0.29569922      3.89042910
    N      1.07465283     -0.43365958     -0.51365886      5.00967355
    N      0.00997408      0.00482927      0.02948662      5.08196665
    C     -1.17906442      0.04634716     -0.80369851      3.83734035
    C     -1.52516515      1.23779938     -1.44780997      4.11706865
    C     -2.69476415      1.31222756     -2.19407124      4.06036436
    C     -3.55275770      0.21186919     -2.29828171      4.09719213
    C     -3.21031458     -0.97854145     -1.67225015      4.06923800
    C     -2.02147577     -1.07042849     -0.93618562      4.10242434
    C     -1.63809629     -2.36181516     -0.35549221      3.33500426
    O     -0.53910914     -2.89005280     -0.40166623      6.53806723
    O     -2.66563685     -2.97040492      0.30460694      6.51518872
    C      3.16730379      0.61547834      0.32338340      4.09937812
    C      2.92626567      1.81929652     -0.48405451      3.32246001
    O      2.33436931      1.89245397     -1.56467227      6.57145401
    O      3.45253830      2.95179221      0.06140389      6.50626865
    C      4.32519579      0.56112976      1.10754650      4.17375994
    H      6.34908631     -2.53161534      2.69918933      0.95005837
    H      5.38262138     -1.88755337      4.08314344      0.95103076
    H      7.08071153     -1.41780568      3.87092083      0.93559781
    H      4.03925224     -2.63539265      2.25486404      0.89807329
    H     -0.84910517      2.07508490     -1.40447180      0.89892241
    H     -2.94329608      2.23777947     -2.70914786      0.91768711
    H     -4.46336941      0.28063260     -2.88075327      0.91372677
    H     -3.84700648     -1.85496055     -1.78088236      0.90749976
    H     -2.27168079     -3.70524207      0.75867493      0.62055087
    H      3.25017062      3.64993984     -0.55802791      0.62182152
    H      5.00611195      1.39880879      1.15552007      0.88076749
   35
Geometry Step: 5
    C      6.16303036     -1.65511882      3.34016445      3.94877553
    O      5.79684620     -0.53918871      2.56669636      6.29734397
    C      4.64853497     -0.58983946      1.83467157      3.69273670
    C      3.81019696     -1.71615196      1.74227815      4.20014127
    C      2.64307471     -1.66575420      0.95981094      3.94910592
    C      1.85417841     -2.86074278      0.85719997      3.82837005
    N      1.29694981     -3.86590005      0.83055655      5.25639404
    C      2.26676187     -0.47551549      0.30215657      3.89497478
    N      1.06678731     -0.43344949     -0.52307196      5.01289393
    N      0.01860686      0.00431383      0.03766315      5.08386883
    C     -1.16947197      0.04735631     -0.82511793      3.84182524
    C     -1.52674962      1.24736203     -1.44641564      4.11669266
    C     -2.69728779      1.31383683     -2.19503698      4.06060027
    C     -3.55283344      0.21516630     -2.29975217      4.09434100
    C     -3.21495717     -0.97610102     -1.67309751      4.07017764
    C     -2.02184268     -1.06486273     -0.94237457      4.10216880
    C     -1.64181696     -2.36174085     -0.35030442      3.33377210
    O     -0.54901303     -2.88809276     -0.41147849      6.53496994
    O     -2.66724475     -2.97694071      0.30893793      6.51614150
    C      3.16599388      0.61253702      0.32170810      4.10059890
    C      2.91851883      1.82525319     -0.48872269      3.32049522
    O      2.33524150      1.88940802     -1.55728676      6.55927313
    O      3.45469864      2.95580783      0.05799726      6.51075288
    C      4.32764854      0.56359741      1.10672688      4.17413070
    H      6.34668382     -2.53373742      2.69998569      0.95091349
    H      5.38157349     -1.89028369      4.08178832      0.95185914
    H      7.08324933     -1.41500635      3.87128601      0.93580851
    H      4.03999624     -2.63918555      2.25619276      0.89860572
    H     -0.84689048      2.07895258     -1.40322449      0.89860429
    H     -2.94249998      2.23723814     -2.70879727      0.91791891
    H     -4.46467986      0.28076875     -2.88161096      0.91457684
    H     -3.84482380     -1.85436483     -1.77907863      0.90658313
    H     -2.27419896     -3.72294896      0.76662754      0.62159523
    H      3.25159160      3.66445114     -0.56058728      0.62335608
    H      5.00492677      1.40166474      1.15312159      0.87963366
   35
Geometry Step: 6
    C      6.16528469     -1.65677335      3.34224266      3.94601739
    O      5.79662803     -0.54508807      2.57126210      6.30113114
    C      4.64686451     -0.58918654      1.83362465      3.68924567
    C      3.81899526     -1.71465400      1.74436733      4.19942943
    C      2.64790008     -1.67043619      0.96380682      3.94696687
    C      1.84715679     -2.87870800      0.86683206      3.82729207
    N      1.31808325     -3.87040127      0.84335162      5.25678833
    C      2.26488167     -0.48018342      0.31260480      3.90284309
    N      1.05406063     -0.43310956     -0.53830268      5.01685422
    N      0.03257501      0.00347983      0.05089306      5.08587809
    C     -1.15395104      0.04898914     -0.85977528      3.85030914
    C     -1.52931333      1.26283471     -1.44415956      4.11586853
    C     -2.70137113      1.31644068     -2.19659958      4.06105851
    C     -3.55295600      0.22050112     -2.30213142      4.08962445
    C     -3.22246905     -0.97215232     -1.67446857      4.07186596
    C     -2.02243635     -1.05585714     -0.95238848      4.10125657
    C     -1.64783713     -2.36162062     -0.34191039      3.33229963
    O     -0.56503785     -2.88492134     -0.42735505      6.52958482
    O     -2.66984639     -2.98751582      0.31594561      6.51750852
    C      3.16387442      0.60777785      0.31899742      4.10309029
    C      2.90598419      1.83489127     -0.49627596      3.31806183
    O      2.33665274      1.88447957     -1.54533677      6.53881471
    O      3.45819415      2.96230523      0.05248522      6.51813422
    C      4.33161718      0.56759015      1.10540071      4.17468395
    H      6.34279650     -2.53717102      2.70127423      0.95232961
    H      5.37987796     -1.89470145      4.07959569      0.95322888
    H      7.08735558     -1.41047694      3.87187689      0.93617813
    H      4.04120004     -2.64532259      2.25834267      0.89940775
    H     -0.84330704      2.08521062     -1.40120631      0.89805202
    H     -2.94121185      2.23636224     -2.70823001      0.91821180
    H     -4.46680020      0.28098904     -2.88299874      0.91593893
    H     -3.84129216     -1.85340092     -1.77616015      0.90504544
    H     -2.27827345     -3.75159931      0.77949512      0.62326984
    H      3.25389079      3.68793092     -0.56472843      0.62592813
    H      5.00300912      1.40628576      1.14924078      0.87780203
   35
Geometry Step: 7
    C      6.16320313     -1.65524562      3.34032372      3.94856397
    O      5.79682948     -0.53964084      2.56704627      6.29763013
    C      4.64840694     -0.58978942      1.83459134      3.69246078
    C      3.81087126     -1.71603716      1.74243826      4.20008887
    C      2.64344453     -1.66611302      0.96011719      3.94896170
    C      1.85364027     -2.86211962      0.85793817      3.82824408
    N      1.29856947     -3.86624502      0.83153716      5.25643208
    C      2.26661777     -0.47587324      0.30295732      3.89555508
    N      1.06581194     -0.43342344     -0.52423924      5.01325784
    N      0.01967738      0.00424991      0.03867709      5.08406370
    C     -1.16828245      0.04748145     -0.82777406      3.84241473
    C     -1.52694610      1.24854785     -1.44624273      4.11663714
    C     -2.69760074      1.31403639     -2.19515674      4.06063371
    C     -3.55284284      0.21557515     -2.29993451      4.09398713
    C     -3.21553288     -0.97579839     -1.67320259      4.07030249
    C     -2.02188818     -1.06417254     -0.94314203      4.10211656
    C     -1.64227834     -2.36173164     -0.34966110      3.33363333
    O     -0.55024116     -2.88784970     -0.41269526      6.53457608
    O     -2.66744414     -2.97775118      0.30947499      6.51625270
    C      3.16583145      0.61217228      0.32150036      4.10076890
    C      2.91755818      1.82599185     -0.48930157      3.32027377
    O      2.33534966      1.88903031     -1.55637092      6.55773327
    O      3.45496653      2.95630579      0.05757482      6.51131370
    C      4.32795270      0.56390341      1.10662525      4.17417965
    H      6.34638589     -2.53400057      2.70008444      0.95102136
    H      5.38144354     -1.89062227      4.08162028      0.95196338
    H      7.08356403     -1.41465921      3.87133130      0.93583510
    H      4.04008850     -2.63965589      2.25635753      0.89866985
    H     -0.84661585      2.07943219     -1.40306982      0.89856473
    H     -2.94240125      2.23717101     -2.70875379      0.91794656
    H     -4.46484236      0.28078563     -2.88171732      0.91468396
    H     -3.84455314     -1.85429096     -1.77885496      0.90646772
    H     -2.27451123     -3.72514471      0.76761370      0.62172532
    H      3.25176781      3.66625062     -0.56090466      0.62355037
    H      5.00477981      1.40201889      1.15282417      0.87949025
   35
Geometry Step: 8
    C      6.16258115     -1.66121690      3.34270652      3.95134239
    O      5.79519506     -0.53903834      2.56741119      6.29981835
    C      4.64848545     -0.59101071      1.83470338      3.68986211
    C      3.81655583     -1.71472099      1.74326368      4.19960342
    C      2.64584345     -1.66713482      0.96340913      3.94978885
    C      1.85588398     -2.86585214      0.86716734      3.82802778
    N      1.30962736     -3.88201985      0.84237323      5.25711126
    C      2.26392334     -0.48130580      0.30402996      3.89367596
    N      1.06915949     -0.43401976     -0.52720913      5.01034769
    N      0.01841337      0.00352265      0.03615830      5.08386639
    C     -1.15539069      0.04930613     -0.84337554      3.84027560
    C     -1.52817157      1.25380518     -1.44629580      4.11669541
    C     -2.70117294      1.31929844     -2.19735665      4.06113042
    C     -3.55386837      0.22040728     -2.30298030      4.09321682
    C     -3.21855535     -0.97243635     -1.67368891      4.07185528
    C     -2.02086511     -1.05990033     -0.94860669      4.10172994
    C     -1.65607680     -2.35863035     -0.34394200      3.33361568
    O     -0.55363930     -2.88918648     -0.42641925      6.54535193
    O     -2.67080865     -2.98282176      0.31494440      6.50775225
    C      3.16405379      0.61084334      0.32155823      4.10021242
    C      2.91745333      1.83164065     -0.47970499      3.32099943
    O      2.32652809      1.88643548     -1.56218888      6.57010290
    O      3.45688025      2.96032589      0.05278627      6.50105944
    C      4.32795407      0.56170360      1.10591191      4.17430954
    H      6.34350338     -2.53631790      2.70222523      0.94861220
    H      5.38132407     -1.89453290      4.07966221      0.94962803
    H      7.08762575     -1.41077437      3.87217430      0.93574660
    H      4.04226849     -2.64448596      2.25851199      0.89955953
    H     -0.84231874      2.08915046     -1.40124171      0.89939641
    H     -2.94278990      2.23837577     -2.70913881      0.91653769
    H     -4.46705898      0.28180486     -2.88349822      0.91494927
    H     -3.84333723     -1.85406274     -1.77612731      0.90620209
    H     -2.27723119     -3.74999526      0.77783621      0.62270573
    H      3.25392182      3.68675259     -0.56460933      0.62391138
    H      5.00488290      1.40887965      1.14916207      0.88099980
   35
Geometry Step: 9
    C      6.16157476     -1.67087862      3.34656198      3.95581298
    O      5.79255051     -0.53806348      2.56800164      6.30326697
    C      4.64861249     -0.59298680      1.83488468      3.68574645
    C      3.82575366     -1.71259138      1.74459922      4.19881682
    C      2.64972498     -1.66878811      0.96873560      3.95112370
    C      1.85951436     -2.87189149      0.88210046      3.82790558
    N      1.32751940     -3.90754407      0.85990635      5.25819936
    C      2.25956365     -0.49009586      0.30576553      3.89070561
    N      1.07457593     -0.43498463     -0.53201451      5.00581422
    N      0.01636817      0.00234591      0.03208282      5.08369753
    C     -1.13453138      0.05225854     -0.86861926      3.83714048
    C     -1.53015441      1.26231173     -1.44638166      4.11668477
    C     -2.70695288      1.32781263     -2.20091618      4.06212210
    C     -3.55552771      0.22822582     -2.30790848      4.09173229
    C     -3.22344581     -0.96699644     -1.67447579      4.07464886
    C     -2.01920974     -1.05298775     -0.95744869      4.10016511
    C     -1.67840318     -2.35361236     -0.33468829      3.33449784
    O     -0.55913760     -2.89134943     -0.44862512      6.56186215
    O     -2.67625254     -2.99102613      0.32379410      6.49428436
    C      3.16117748      0.60869307      0.32165187      4.09903876
    C      2.91728367      1.84078061     -0.46417741      3.32306539
    O      2.31225450      1.88223697     -1.57160253      6.58859725
    O      3.45997670      2.96683055      0.04503822      6.48521180
    C      4.32795629      0.55814422      1.10475771      4.17441548
    H      6.33883938     -2.54006742      2.70568910      0.94483045
    H      5.38113077     -1.90086045      4.07649398      0.94595153
    H      7.09419776     -1.40448855      3.87353831      0.93557347
    H      4.04579579     -2.65230117      2.26199799      0.90097325
    H     -0.83536588      2.10487494     -1.39828378      0.90071022
    H     -2.94341875      2.24032513     -2.70976178      0.91426215
    H     -4.47064554      0.28345401     -2.88637976      0.91538414
    H     -3.84136985     -1.85369347     -1.77171389      0.90572011
    H     -2.28163216     -3.79020429      0.79437658      0.62423097
    H      3.25740709      3.71992547     -0.57060362      0.62435726
    H      5.00504970      1.41998059      1.14323667      0.88345060
   35
Geometry Step: 10
    C      6.16256810     -1.66134214      3.34275650      3.95140033
    O      5.79516078     -0.53902570      2.56741885      6.29986705
    C      4.64848710     -0.59103633      1.83470573      3.68980613
    C      3.81667506     -1.71469338      1.74328099      4.19959245
    C      2.64589376     -1.66715625      0.96347818      3.94980397
    C      1.85593104     -2.86593043      0.86736093      3.82802263
    N      1.30985930     -3.88235073      0.84260051      5.25712629
    C      2.26386682     -0.48141974      0.30405246      3.89363970
    N      1.06922970     -0.43403227     -0.52727142      5.01029490
    N      0.01838686      0.00350739      0.03610547      5.08385432
    C     -1.15512029      0.04934441     -0.84370278      3.84022836
    C     -1.52819727      1.25391546     -1.44629691      4.11669079
    C     -2.70124786      1.31940882     -2.19740279      4.06113996
    C     -3.55388988      0.22050863     -2.30304418      4.09320050
    C     -3.21861875     -0.97236583     -1.67369911      4.07189555
    C     -2.02084365     -1.05981072     -0.94872131      4.10172084
    C     -1.65636622     -2.35856530     -0.34382204      3.33362444
    O     -0.55371058     -2.88921452     -0.42670710      6.54557148
    O     -2.67087922     -2.98292811      0.31505912      6.50757511
    C      3.16401651      0.61081546      0.32155945      4.10020006
    C      2.91745113      1.83175913     -0.47950371      3.32102297
    O      2.32634306      1.88638106     -1.56231091      6.57035267
    O      3.45692039      2.96041021      0.05268583      6.50084674
    C      4.32795410      0.56165746      1.10589695      4.17431262
    H      6.34344292     -2.53636650      2.70227013      0.94856088
    H      5.38132157     -1.89461493      4.07962114      0.94957841
    H      7.08771095     -1.41069288      3.87219198      0.93574513
    H      4.04231421     -2.64458727      2.25855718      0.89957805
    H     -0.84222861      2.08935430     -1.40120337      0.89941282
    H     -2.94279805      2.23840104     -2.70914689      0.91650688
    H     -4.46710547      0.28182624     -2.88353557      0.91495490
    H     -3.84331173     -1.85405795     -1.77607010      0.90619686
    H     -2.27728824     -3.75051650      0.77805063      0.62272571
    H      3.25396700      3.68718262     -0.56468704      0.62391741
    H      5.00488506      1.40902355      1.14908526      0.88103306
   35
Geometry Step: 11
    C      6.16327789     -1.66597646      3.34542679      3.95430522
    O      5.79387069     -0.53740075      2.56773904      6.29856519
    C      4.65225983     -0.59110253      1.83573645      3.68969884
    C      3.81898819     -1.71922132      1.74433398      4.20152819
    C      2.64637187     -1.66861566      0.96724324      3.95253756
    C      1.85857059     -2.87385885      0.87863456      3.82760097
    N      1.32430789     -3.89702667      0.85576400      5.26028524
    C      2.26252938     -0.48528038      0.29991266      3.89108421
    N      1.07802193     -0.43379276     -0.52059706      5.00820759
    N      0.01469107      0.00033527      0.01972384      5.07909374
    C     -1.14671359      0.05008137     -0.85192033      3.83761816
    C     -1.52649652      1.25805544     -1.44958930      4.11841909
    C     -2.70234997      1.32523272     -2.19783299      4.06038783
    C     -3.55643603      0.22450838     -2.30719114      4.09555780
    C     -3.21797503     -0.96630645     -1.67392463      4.07002163
    C     -2.01990830     -1.05766393     -0.95155765      4.10478472
    C     -1.66065982     -2.35978221     -0.34158195      3.33264148
    O     -0.56585104     -2.88720694     -0.44039806      6.53959372
    O     -2.67060454     -2.99666279      0.32851526      6.51472605
    C      3.16231916      0.61137789      0.32463681      4.10326104
    C      2.91237020      1.83590544     -0.48029900      3.32044323
    O      2.32060930      1.88451434     -1.55800430      6.56607591
    O      3.45673762      2.97120516      0.04200300      6.50521016
    C      4.32638322      0.55990664      1.10409178      4.17323745
    H      6.34075148     -2.53979900      2.70463246      0.94663590
    H      5.38096371     -1.89970953      4.07862007      0.94764071
    H      7.09017763     -1.40750925      3.87219978      0.93471171
    H      4.04548917     -2.64740323      2.26016900      0.89892325
    H     -0.83915410      2.10108191     -1.39927192      0.90078752
    H     -2.94515752      2.24364539     -2.71129352      0.91652009
    H     -4.47000808      0.28397089     -2.88621592      0.91399620
    H     -3.84348742     -1.85376358     -1.77260220      0.90759519
    H     -2.28508254     -3.76824054      0.78178392      0.62218675
    H      3.25818160      3.70362189     -0.56388363      0.62361706
    H      5.00379169      1.41566836      1.14460901      0.88250060
   35
Geometry Step: 12
    C      6.16442634     -1.67347493      3.34974742      3.95894164
    O      5.79178328     -0.53477153      2.56825714      6.29638279
    C      4.65836423     -0.59120964      1.83740419      3.68974199
    C      3.82273092     -1.72654769      1.74603775      4.20461018