   43
Geometry Step: 0
    C     -2.92165911     -2.13285385     -0.06832250      4.24236555
    C     -2.41403987     -1.82179847      1.31257488      3.99740253
    C     -2.79862481     -2.66373178      2.37303332      4.08853106
    C     -2.36663077     -2.41626564      3.68235599      4.09398839
    C     -2.81229061     -3.33522401      4.75787855      3.31778562
    O     -3.54551520     -4.29608115      4.61821332      6.58242368
    O     -2.31411377     -3.00771842      5.96334513      6.50167708
    C     -1.54681471     -1.31522982      3.94017062      4.07387149
    C     -1.15103600     -0.48318208      2.89001967      4.13779790
    C     -1.54495473     -0.74367810      1.56724056      3.83945432
    N     -1.12949559      0.13310198      0.54210509      5.06121633
    N      0.00000000      0.00000000      0.00000000      5.06240679
    C      0.40889771      0.87741721     -1.02186491      3.82162239
    C      0.15420220      0.57073061     -2.35851031      4.12903713
    C      0.54510550      1.45396242     -3.36563839      4.09032476
    C      0.28471794      1.07148511     -4.76963570      3.31559073
    O      0.41652650     -0.06754219     -5.17987149      6.52178960
    O     -0.15088361      2.09860620     -5.52762555      6.48514839
    C      1.19945023      2.65002544     -3.04516366      4.15433253
    C      1.42987576      2.99849719     -1.70514002      3.92967933
    C      2.10382747      4.25815817     -1.35548253      3.95604519
    C      3.36455390      4.57554114     -1.88819183      4.09891650
    C      4.00511963      5.77245221     -1.55696151      4.07215408
    C      3.39503680      6.67226807     -0.68699264      4.07672672
    C      2.14640560      6.37593137     -0.14670445      4.07278912
    C      1.50690348      5.17833378     -0.47772977      4.10196055
    C      1.00771107      2.10492739     -0.70578960      4.15301137
    H     -3.98438180     -2.39625262     -0.03055710      0.91176856
    H     -2.83148882     -1.27801980     -0.74491730      0.91811173
    H     -2.36629988     -2.97521458     -0.49136480      0.90435142
    H     -3.44756590     -3.51682014      2.17457657      0.89130749
    H     -2.69015189     -3.68689114      6.56216056      0.62509488
    H     -1.21176189     -1.09259251      4.95016243      0.89897321
    H     -0.52034093      0.37800587      3.09899057      0.91218351
    H     -0.34302168     -0.36320267     -2.61128679      0.89292545
    H     -0.37092542      2.91156468     -5.03502236      0.64438758
    H      1.54380908      3.31216505     -3.83788617      0.91547932
    H      3.86837943      3.88199937     -2.55897867      0.91839632
    H      4.98245730      5.99897120     -1.97580811      0.91862922
    H      3.89345493      7.60311463     -0.42851419      0.92032994
    H      1.66807530      7.07698575      0.53271467      0.91954195
    H      0.52815914      4.97270757     -0.04837031      0.92183714
    H      1.17466156      2.34523024      0.34311074      0.90863316
   43
Geometry Step: 1
    C     -2.92813803     -2.12427649     -0.07848542      4.24396029
    C     -2.43988207     -1.85058206      1.31627302      3.98220132
    C     -2.79285305     -2.63741629      2.34317202      4.06298605
    C     -2.38689771     -2.44468030      3.67379934      4.07261605
    C     -2.77033220     -3.26870501      4.71485636      3.34696296
    O     -3.58260139     -4.34522566      4.61543348      6.62870726
    O     -2.33056042     -3.04731399      6.02963782      6.52173599
    C     -1.53260381     -1.28202163      3.92663608      4.07953509
    C     -1.14398584     -0.47983982      2.91640343      4.10755323
    C     -1.52676095     -0.77554954      1.60159612      3.84427514
    N     -1.18684917      0.18005396      0.51568802      5.09472675
    N      0.05350749     -0.06366079      0.02574172      5.09185347
    C      0.37394596      0.93911385     -1.03269445      3.83381503
    C      0.15577960      0.53955530     -2.36365238      4.12259606
    C      0.56024333      1.45182892     -3.33458239      4.07985773
    C      0.28332983      1.06253327     -4.75582558      3.35161836
    O      0.41212795     -0.06927105     -5.20482581      6.48437262
    O     -0.17295202      2.12901691     -5.57765256      6.51335877
    C      1.20570348      2.66275655     -3.04473694      4.14129278
    C      1.41699362      2.95649712     -1.70687699      3.94117274
    C      2.12189291      4.29414428     -1.34489141      3.97419086
    C      3.37460333      4.58038355     -1.89691793      4.09377742
    C      4.00206716      5.76131729     -1.56042617      4.06586889
    C      3.40047281      6.68254576     -0.68413395      4.08941441
    C      2.13894201      6.36705991     -0.14825890      4.06664970
    C      1.50384743      5.18552647     -0.46615196      4.09558690
    C      1.02376767      2.11727369     -0.68640028      4.13021815
    H     -3.97244468     -2.40124038     -0.03240199      0.90753268
    H     -2.82496762     -1.28507951     -0.73839268      0.90722766
    H     -2.37307428     -2.97142481     -0.49601816      0.90355340
    H     -3.44468082     -3.51249752      2.17815109      0.89449244
    H     -2.67127977     -3.66405669      6.56921047      0.60983563
    H     -1.21423525     -1.09620635      4.94957349      0.89618620
    H     -0.51770582      0.37573775      3.09682404      0.90522057
    H     -0.34197288     -0.36000251     -2.61562654      0.87825820
    H     -0.35731119      2.88759773     -5.03843784      0.64606326
    H      1.54112811      3.31197166     -3.83828089      0.90300210
    H      3.86353001      3.87973888     -2.55892536      0.91477670
    H      4.98227478      5.99777487     -1.97628630      0.92237456
    H      3.89355693      7.60355038     -0.42844723      0.91207587
    H      1.66698067      7.07622832      0.53260698      0.92319228
    H      0.52838743      4.96826258     -0.05056577      0.91903797
    H      1.17433998      2.34846506      0.34061441      0.89626647
   43
Geometry Step: 2
    C     -2.92317731     -2.13084392     -0.07070397      4.24276085
    C     -2.42009547     -1.82854332      1.31344147      3.99334096
    C     -2.79727232     -2.65756528      2.36603593      4.08242842
    C     -2.37137992     -2.42292404      3.68035092      4.08786291
    C     -2.80245851     -3.31963663      4.74779717      3.32185968
    O     -3.55420560     -4.30759717      4.61756192      6.59819279
    O     -2.31796771     -3.01699684      5.97887948      6.50601126
    C     -1.54348467     -1.30744815      3.93699908      4.07612893
    C     -1.14938394     -0.48239889      2.89620217      4.12972851
    C     -1.54069138     -0.75114653      1.57529109      3.84054306
    N     -1.14293524      0.14410422      0.53591479      5.07085977
    N      0.01253840     -0.01491762      0.00603205      5.07177357
    C      0.40070748      0.89187457     -1.02440259      3.82357175
    C      0.15457183      0.56342530     -2.35971525      4.12705705
    C      0.54865274      1.45346248     -3.35836105      4.08834707
    C      0.28439266      1.06938743     -4.76639958      3.32380390
    O      0.41549579     -0.06794731     -5.18571903      6.51274896
    O     -0.15605489      2.10573233     -5.53934837      6.49202199
    C      1.20091555      2.65300872     -3.04506366      4.15041955
    C      1.42685709      2.98865532     -1.70554704      3.93282634
    C      2.10806074      4.26659078     -1.35300071      3.96036666
    C      3.36690878      4.57667586     -1.89023661      4.09765637
    C      4.00440434      5.76984296     -1.55777338      4.07072403
    C      3.39631062      6.67467644     -0.68632277      4.07960226
    C      2.14465666      6.37385252     -0.14706871      4.07138860
    C      1.50618735      5.18001924     -0.47501675      4.10037415
    C      1.01147361      2.10782050     -0.70124610      4.14691882
    H     -3.98158458     -2.39742140     -0.03098941      0.91083577
    H     -2.82996071     -1.27967410     -0.74338839      0.91538821
    H     -2.36788733     -2.97432652     -0.49245522      0.90412111
    H     -3.44688984     -3.51580722      2.17541419      0.89177838
    H     -2.68572959     -3.68154035      6.56381257      0.62065908
    H     -1.21234147     -1.09343934      4.95002443      0.89828394
    H     -0.51972345      0.37747439      3.09848289      0.91050552
    H     -0.34277591     -0.36245278     -2.61230373      0.88926307
    H     -0.36773520      2.90594851     -5.03582271      0.64486108
    H      1.54318085      3.31211974     -3.83797866      0.91250144
    H      3.86724306      3.88146967     -2.55896618      0.91754467
    H      4.98241453      5.99869087     -1.97592016      0.91947966
    H      3.89347883      7.60321674     -0.42849850      0.91834530
    H      1.66781879      7.07680826      0.53268944      0.92036660
    H      0.52821263      4.97166598     -0.04888477      0.92115274
    H      1.17458621      2.34598825      0.34252578      0.90559523
   43
Geometry Step: 3
    C     -2.92527074     -2.12955165     -0.07360571      4.24373721
    C     -2.42305887     -1.82896663      1.30902257      3.98769005
    C     -2.80144032     -2.65816246      2.36173403      4.08695564
    C     -2.36884355     -2.41807204      3.67283006      4.08731975
    C     -2.80805295     -3.32737007      4.74348532      3.32135282
    O     -3.54761853     -4.29868013      4.61853346      6.57817339
    O     -2.32033742     -3.02166303      5.98660315      6.51902498
    C     -1.54562365     -1.30702000      3.93737841      4.07519949
    C     -1.14439763     -0.47782883      2.90070610      4.12692187
    C     -1.53727356     -0.76274580      1.58221020      3.84966069
    N     -1.14275233      0.15373195      0.51970769      5.07642235
    N      0.01055800     -0.03139533      0.02377327      5.07478825
    C      0.38420164      0.90761628     -1.02452524      3.83134324
    C      0.15822123      0.55694894     -2.35668411      4.12319236
    C      0.55389984      1.45144440     -3.35255413      4.08773700
    C      0.28230020      1.06730790     -4.76725109      3.33148207
    O      0.41265282     -0.06361873     -5.19507944      6.50349025
    O     -0.16170628      2.10816062     -5.55749118      6.49685696
    C      1.20160106      2.65439074     -3.04406590      4.14683067
    C      1.42935845      2.98641956     -1.70400063      3.93545968
    C      2.11112180      4.27184242     -1.35130736      3.96222815
    C      3.36973150      4.57789995     -1.89362699      4.09829097
    C      4.00537021      5.77046629     -1.55751819      4.07013630
    C      3.39617932      6.67449279     -0.68634172      4.07910488
    C      2.14485525      6.37522297     -0.14666107      4.07073134
    C      1.50461064      5.18167773     -0.47075263      4.10104602
    C      1.01521673      2.10917110     -0.69434634      4.14241812
    H     -3.97744668     -2.40003156     -0.03237961      0.91025158
    H     -2.82660493     -1.28100128     -0.74140987      0.91352215
    H     -2.37127729     -2.97215484     -0.49478902      0.90423906
    H     -3.44484810     -3.51234815      2.17668454      0.89199499
    H     -2.68464312     -3.68393104      6.57627648      0.62150177
    H     -1.21341935     -1.09472570      4.94975826      0.89816358
    H     -0.51758919      0.37768785      3.09797359      0.90775540
    H     -0.34351384     -0.36412775     -2.61495789      0.88831999
    H     -0.36283740      2.89973122     -5.03561342      0.64677102
    H      1.54227306      3.31280271     -3.83857881      0.91157880
    H      3.86522982      3.87985296     -2.55953017      0.91634841
    H      4.98206703      5.99790027     -1.97611239      0.91953003
    H      3.89413163      7.60453898     -0.42815403      0.91882206
    H      1.66726971      7.07616454      0.53247193      0.92037408
    H      0.52776721      4.96933752     -0.04960046      0.91980829
    H      1.17527212      2.34846900      0.34411035      0.90342427
   43
Geometry Step: 4
    C     -2.92499143     -2.12972406     -0.07321856      4.24360386
    C     -2.42266350     -1.82891015      1.30961214      3.98842736
    C     -2.80088423     -2.65808278      2.36230799      4.08635272
    C     -2.36918195     -2.41871939      3.67383349      4.08738158
    C     -2.80730655     -3.32633828      4.74406061      3.32137563
    O     -3.54849737     -4.29986983      4.61840384      6.58088614
    O     -2.32002125     -3.02104047      5.98557266      6.51726161
    C     -1.54533827     -1.30707712      3.93732780      4.07533233
    C     -1.14506290     -0.47843856      2.90010519      4.12729273
    C     -1.53772957     -0.76119824      1.58128706      3.84841948
    N     -1.14277673      0.15244742      0.52187003      5.07574334
    N      0.01082222     -0.02919689      0.02140625      5.07445220
    C      0.38640383      0.90551603     -1.02450888      3.83026425
    C      0.15773433      0.55781301     -2.35708852      4.12370488
    C      0.55319977      1.45171365     -3.35332888      4.08783827
    C      0.28257937      1.06758535     -4.76713748      3.33044791
    O      0.41303212     -0.06419625     -5.19383058      6.50472537
    O     -0.16095228      2.10783664     -5.55507058      6.49621429
    C      1.20150960      2.65420635     -3.04419902      4.14728805
    C      1.42902472      2.98671785     -1.70420695      3.93511969
    C      2.11071340      4.27114175     -1.35153328      3.96197903
    C      3.36935489      4.57773664     -1.89317464      4.09820761
    C      4.00524135      5.77038313     -1.55755223      4.07021578
    C      3.39619684      6.67451730     -0.68633919      4.07916920
    C      2.14482875      6.37504012     -0.14671546      4.07081878
    C      1.50482100      5.18145646     -0.47132154      4.10095610
    C      1.01471732      2.10899091     -0.69526690      4.14301085
    H     -3.97799875     -2.39968332     -0.03219413      0.91033319
    H     -2.82705266     -1.28082421     -0.74167384      0.91376541
    H     -2.37082500     -2.97244458     -0.49447765      0.90422355
    H     -3.44512051     -3.51280966      2.17651505      0.89196866
    H     -2.68478808     -3.68361207      6.57461355      0.62139375
    H     -1.21327554     -1.09455408      4.94979377      0.89818320
    H     -0.51787394      0.37765937      3.09804154      0.90811479
    H     -0.34341538     -0.36390427     -2.61460377      0.88844423
    H     -0.36349086      2.90056072     -5.03564134      0.64652229
    H      1.54239418      3.31271158     -3.83849874      0.91170175
    H      3.86549842      3.88006866     -2.55945493      0.91650811
    H      4.98211339      5.99800575     -1.97608674      0.91952422
    H      3.89404454      7.60436257     -0.42819999      0.91875889
    H      1.66734297      7.07625042      0.53250095      0.92037376
    H      0.52782664      4.96964818     -0.04950497      0.91998683
    H      1.17518060      2.34813802      0.34389894      0.90370834
   43
Geometry Step: 5
    C     -2.92431357     -2.13014344     -0.07471132      4.24357718
    C     -2.42028178     -1.82416789      1.30471724      3.98967351
    C     -2.80500218     -2.66001440      2.36299149      4.08949926
    C     -2.36592008     -2.41295917      3.66858684      4.08651293
    C     -2.80557831     -3.32719986      4.75128048      3.32058137
    O     -3.54744094     -4.29748004      4.61515076      6.58343831
    O     -2.31999636     -3.01869352      5.98011342      6.50635229
    C     -1.54838704     -1.30952221      3.94140529      4.07778530
    C     -1.14348024     -0.47932049      2.89590625      4.12856553
    C     -1.53558585     -0.76077471      1.57708547      3.84689268
    N     -1.14663587      0.14690570      0.52103335      5.07553177
    N      0.01024875     -0.02947492      0.02694537      5.07133734
    C      0.37084468      0.90318432     -1.01313220      3.82882123
    C      0.16351729      0.56005673     -2.35006516      4.12182680
    C      0.55576822      1.44732457     -3.35954453      4.08972784
    C      0.27854005      1.07256977     -4.77642910      3.32928772
    O      0.40933789     -0.05929914     -5.20368932      6.50991400
    O     -0.16254091      2.10040357     -5.56426199      6.48686136
    C      1.20103428      2.65193988     -3.04032616      4.14843061
    C      1.43857128      2.99828453     -1.69866519      3.93296974
    C      2.10998799      4.26746032     -1.35209093      3.95837100
    C      3.36872172      4.58018228     -1.89400659      4.09867097
    C      4.00809651      5.77379844     -1.55708152      4.07135356
    C      3.39574251      6.67336086     -0.68668394      4.07649634
    C      2.14585191      6.37917566     -0.14506585      4.07206323
    C      1.50660332      5.18160830     -0.46970590      4.10179590
    C      1.01415210      2.10807849     -0.69499744      4.14491740
    H     -3.97675329     -2.40344179     -0.03456818      0.91040197
    H     -2.82289091     -1.27924807     -0.74182416      0.91433605
    H     -2.37460817     -2.97011209     -0.49801776      0.90372183
    H     -3.44573405     -3.51185950      2.17706351      0.88966489
    H     -2.68746595     -3.69335901      6.59489874      0.62421450
    H     -1.21526638     -1.09665779      4.95032038      0.89743042
    H     -0.51219024      0.38187715      3.09848378      0.90975639
    H     -0.34474687     -0.36843941     -2.61761811      0.89265067
    H     -0.35865842      2.89631837     -5.03664634      0.64848976
    H      1.54118940      3.31392714     -3.83914529      0.91536111
    H      3.86386102      3.87710504     -2.56147476      0.91738225
    H      4.98251051      5.99751158     -1.97646477      0.91810244
    H      3.89464730      7.60557977     -0.42788665      0.92045962
    H      1.66653157      7.07634142      0.53276070      0.91889906
    H      0.52578597      4.96649032     -0.04937752      0.92072706
    H      1.17726665      2.35256691      0.35105967      0.90714679
   43
Geometry Step: 6
    C     -2.92455700     -2.12999284     -0.07417526      4.24358680
    C     -2.42113708     -1.82587088      1.30647504      3.98923438
    C     -2.80352338     -2.65932074      2.36274604      4.08837772
    C     -2.36709145     -2.41502772      3.67047096      4.08682455
    C     -2.80619894     -3.32689046      4.74868776      3.32083612
    O     -3.54782031     -4.29833823      4.61631897      6.58251948
    O     -2.32000530     -3.01953633      5.98207389      6.51029936
    C     -1.54729220     -1.30864416      3.93994103      4.07690435
    C     -1.14404859     -0.47900378      2.89741413      4.12809633
    C     -1.53635568     -0.76092680      1.57859430      3.84744728
    N     -1.14525002      0.14889578      0.52133381      5.07560900
    N      0.01045469     -0.02937508      0.02495622      5.07243915
    C      0.37643212      0.90402166     -1.01721767      3.82933929
    C      0.16144058      0.55925099     -2.35258732      4.12250784
    C      0.55484587      1.44890073     -3.35731243      4.08906512
    C      0.27999061      1.07077982     -4.77309239      3.32970634
    O      0.41066452     -0.06105773     -5.20014895      6.50804756
    O     -0.16197042      2.10307285     -5.56096127      6.49021830
    C      1.20120497      2.65275379     -3.04171694      4.14802048
    C      1.43514302      2.99413083     -1.70065529      3.93376676
    C      2.11024849      4.26878235     -1.35189067      3.95966001
    C      3.36894910      4.57930403     -1.89370783      4.09850828
    C      4.00707120      5.77257197     -1.55725056      4.07094870
    C      3.39590567      6.67377615     -0.68656014      4.07745416
    C      2.14548448      6.37769055     -0.14565824      4.07161975
    C      1.50596327      5.18155377     -0.47028609      4.10149703
    C      1.01435508      2.10840615     -0.69509421      4.14422851
    H     -3.97720055     -2.40209209     -0.03371564      0.91037986
    H     -2.82438543     -1.27981407     -0.74177018      0.91413255
    H     -2.37324960     -2.97094971     -0.49674647      0.90390414
    H     -3.44551372     -3.51220071      2.17686655      0.89049289
    H     -2.68650430     -3.68985879      6.58761414      0.62316970
    H     -1.21455145     -1.09590233      4.95013127      0.89770135
    H     -0.51423131      0.38036251      3.09832497      0.90916865
    H     -0.34426872     -0.36681080     -2.61653563      0.89113123
    H     -0.36039379      2.89784184     -5.03628544      0.64778503
    H      1.54162205      3.31349062     -3.83891311      0.91404817
    H      3.86444903      3.87816931     -2.56074942      0.91706779
    H      4.98236790      5.99768904     -1.97632901      0.91861156
    H      3.89443084      7.60514266     -0.42799917      0.91984715
    H      1.66682295      7.07630874      0.53266742      0.91942699
    H      0.52651879      4.96762434     -0.04942329      0.92046032
    H      1.17651753      2.35097645      0.34848818      0.90590995
   43
Geometry Step: 7
    C     -2.92383151     -2.12897961     -0.07566345      4.24379123
    C     -2.42124082     -1.82671802      1.30674656      3.99056493
    C     -2.80333248     -2.65514668      2.35946957      4.08521400
    C     -2.36840190     -2.41697186      3.67173416      4.08863219
    C     -2.80271169     -3.32310014      4.74980517      3.31987597
    O     -3.54902437     -4.29921970      4.61316758      6.58814270
    O     -2.32361670     -3.02562172      5.98810971      6.50994839
    C     -1.54640260     -1.30506654      3.93806154      4.07651486
    C     -1.14271893     -0.48102575      2.89655426      4.12790245
    C     -1.53536350     -0.75832476      1.57485028      3.84497879
    N     -1.14961900      0.14109892      0.52381496      5.07247731
    N      0.00933126     -0.02590889      0.02771315      5.07049656
    C      0.36944304      0.90392688     -1.00951980      3.82888430
    C      0.16302347      0.55799321     -2.35045821      4.12335434
    C      0.55703453      1.44721716     -3.35973073      4.09091079
    C      0.27740032      1.07339828     -4.78133689      3.32982979
    O      0.40755548     -0.05873383     -5.20902687      6.51009989
    O     -0.16420337      2.10098090     -5.56508630      6.48537323
    C      1.20213675      2.65239069     -3.03869488      4.14793431
    C      1.43774794      2.99418134     -1.69797086      3.93336860
    C      2.11243147      4.27104699     -1.35040581      3.95940315
    C      3.36857733      4.58133649     -1.89444999      4.09765848
    C      4.00779701      5.77298462     -1.55760116      4.07083752
    C      3.39700440      6.67571204     -0.68597823      4.07855909
    C      2.14506977      6.37812713     -0.14519721      4.07154257
    C      1.50787610      5.18155210     -0.46917661      4.10045671
    C      1.01347609      2.10967795     -0.69350328      4.14446714
    H     -3.97671489     -2.40531226     -0.03594049      0.91042176
    H     -2.82091435     -1.27817140     -0.74247579      0.91423710
    H     -2.37570521     -2.96989288     -0.50050105      0.90397574
    H     -3.44761756     -3.51315285      2.17713610      0.89108113
    H     -2.68413087     -3.68970858      6.59744379      0.62231708
    H     -1.21635559     -1.09789719      4.95180062      0.89806990
    H     -0.51002255      0.38278318      3.09817950      0.91064255
    H     -0.34353983     -0.36801527     -2.61784298      0.89167503
    H     -0.35561731      2.89222720     -5.04001353      0.64772532
    H      1.53992530      3.31366097     -3.83826421      0.91532144
    H      3.86266550      3.87638503     -2.56206116      0.91753912
    H      4.98377443      5.99779693     -1.97693073      0.91871717
    H      3.89456004      7.60542797     -0.42794062      0.91899154
    H      1.66586122      7.07738514      0.53357115      0.91956261
    H      0.52559647      4.96510111     -0.04943780      0.92115830
    H      1.17813064      2.35445938      0.35337256      0.90734488
   43
Geometry Step: 8
    C     -2.92265766     -2.12734017     -0.07807140      4.24414724
    C     -2.42140867     -1.82808872      1.30718589      3.99277137
    C     -2.80302360     -2.64839291      2.35416815      4.08019627
    C     -2.37052225     -2.42011755      3.67377806      4.09164632
    C     -2.79706919     -3.31696728      4.75161319      3.31847867
    O     -3.55097258     -4.30064594      4.60806852      6.59695689
    O     -2.32946006     -3.03546810      5.99787587      6.50977570
    C     -1.54496321     -1.29927783      3.93502046      4.07586019
    C     -1.14056750     -0.48429736      2.89516295      4.12757693
    C     -1.53375814     -0.75411456      1.56879232      3.84100784
    N     -1.15668815      0.12848332      0.52782955      5.06709246
    N      0.00751352     -0.02030048      0.03217395      5.06745388
    C      0.35813448      0.90377351     -0.99706438      3.82820822
    C      0.16558464      0.55595806     -2.34701324      4.12473420
    C      0.56057585      1.44449308     -3.36364362      4.09391861
    C      0.27320916      1.07763504     -4.79467676      3.33005183
    O      0.40252495     -0.05497367     -5.22339163      6.51340544
    O     -0.16781636      2.09759605     -5.57176074      6.47745164
    C      1.20364441      2.65180317     -3.03380509      4.14774839
    C      1.44196279      2.99426307     -1.69362736      3.93271112
    C      2.11596362      4.27471124     -1.34800324      3.95895977
    C      3.36797580      4.58462508     -1.89565083      4.09629552
    C      4.00897139      5.77365230     -1.55816843      4.07064844
    C      3.39878219      6.67884436     -0.68503669      4.08034776
    C      2.14439874      6.37883354     -0.14445124      4.07142215
    C      1.51097112      5.18154939     -0.46738142      4.09878820
    C      1.01205385      2.11173578     -0.69092911      4.14479183
    H     -3.97592907     -2.41052261     -0.03954039      0.91045970
    H     -2.81529803     -1.27551350     -0.74361749      0.91442899
    H     -2.37967848     -2.96818288     -0.50657607      0.90407287
    H     -3.45102164     -3.51469344      2.17757225      0.89199244
    H     -2.68029058     -3.68946554      6.61334850      0.62086991
    H     -1.21927474     -1.10112496      4.95450169      0.89858822
    H     -0.50321264      0.38669992      3.09794413      0.91305953
    H     -0.34236047     -0.36996413     -2.61995830      0.89253651
    H     -0.34788880      2.88314252     -5.04604572      0.64763030
    H      1.53717991      3.31393659     -3.83721427      0.91738406
    H      3.85977969      3.87349801     -2.56418359      0.91829606
    H      4.98605025      5.99797151     -1.97790432      0.91888173
    H      3.89476908      7.60588960     -0.42784588      0.91761199
    H      1.66430510      7.07912679      0.53503341      0.91977556
    H      0.52410411      4.96101845     -0.04946128      0.92228805
    H      1.18074070      2.36009487      0.36127565      0.90967720
   43
Geometry Step: 9
    C     -2.92376279     -2.12888363     -0.07580443      4.24381156
    C     -2.42125064     -1.82679827      1.30677228      3.99069800
    C     -2.80331440     -2.65475127      2.35915919      4.08492037
    C     -2.36852604     -2.41715603      3.67185382      4.08880329
    C     -2.80238134     -3.32274108      4.74991102      3.31978536
    O     -3.54913843     -4.29930320      4.61286905      6.58866886
    O     -2.32395881     -3.02619819      5.98868148      6.50992745
    C     -1.54631833     -1.30472763      3.93788349      4.07647418
    C     -1.14259297     -0.48121729      2.89647280      4.12787865
    C     -1.53526952     -0.75807826      1.57449560      3.84474541
    N     -1.15003287      0.14036032      0.52405000      5.07217273
    N      0.00922484     -0.02558054      0.02797431      5.07032190
    C      0.36878097      0.90391790     -1.00879058      3.82884935
    C      0.16317341      0.55787406     -2.35025652      4.12343671
    C      0.55724186      1.44705767     -3.35995982      4.09108307
    C      0.27715495      1.07364633     -4.78211789      3.32984629
    O      0.40726096     -0.05851368     -5.20986787      6.51028961
    O     -0.16441490      2.10078273     -5.56547707      6.48490923
    C      1.20222502      2.65235629     -3.03840860      4.14791925
    C      1.43799471      2.99418613     -1.69771656      3.93332382
    C      2.11263827      4.27126152     -1.35026515      3.95937946
    C      3.36854212      4.58152902     -1.89452029      4.09757506
    C      4.00786576      5.77302371     -1.55763437      4.07082470
    C      3.39710848      6.67589542     -0.68592311      4.07866605
    C      2.14503048      6.37816849     -0.14515353      4.07153858
    C      1.50805730      5.18155194     -0.46907151      4.10036036
    C      1.01339282      2.10979843     -0.69335257      4.14448250
    H     -3.97666888     -2.40561731     -0.03615126      0.91042434
    H     -2.82058554     -1.27801579     -0.74254263      0.91424754
    H     -2.37593783     -2.96979276     -0.50085672      0.90398140
    H     -3.44781686     -3.51324305      2.17716164      0.89113629
    H     -2.68390604     -3.68969435      6.59837495      0.62223398
    H     -1.21652649     -1.09808617      4.95195876      0.89810364
    H     -0.50962386      0.38301249      3.09816572      0.91078404
    H     -0.34347079     -0.36812936     -2.61796682      0.89172791
    H     -0.35516484      2.89169532     -5.04036670      0.64772018
    H      1.53976457      3.31367710     -3.83820274      0.91544464
    H      3.86249655      3.87621601     -2.56218542      0.91758316