|===============================================================================
|
|  DFTB+ development version (commit: 6753566)
|
|  Copyright (C) 2018  DFTB+ developers group
|
|===============================================================================
|
|  When publishing results obtained with DFTB+, please cite the following
|  reference:
|
|  * B. Aradi, B. Hourahine and T. Frauenheim,
|    DFTB+, a Sparse Matrix-Based Implementation of the DFTB Method,
|    J. Phys. Chem. A, 111 5678 (2007).  [doi: 10.1021/jp070186p]
|
|  You should also cite additional publications crediting the parametrization
|  data you use. Please consult the documentation of the SK-files for the
|  references.
|
|===============================================================================


***  Parsing and initializing

Parser version: 6

Interpreting input file 'dftb_in.hsd'
--------------------------------------------------------------------------------
Reading SK-files:
  /var/lib/condor/execute/dir_4246/neb_bin/3ob-3-1/N-N.skf
  /var/lib/condor/execute/dir_4246/neb_bin/3ob-3-1/N-C.skf
  /var/lib/condor/execute/dir_4246/neb_bin/3ob-3-1/N-O.skf
  /var/lib/condor/execute/dir_4246/neb_bin/3ob-3-1/N-F.skf
  /var/lib/condor/execute/dir_4246/neb_bin/3ob-3-1/N-H.skf
  /var/lib/condor/execute/dir_4246/neb_bin/3ob-3-1/C-C.skf
  /var/lib/condor/execute/dir_4246/neb_bin/3ob-3-1/C-O.skf
  /var/lib/condor/execute/dir_4246/neb_bin/3ob-3-1/C-F.skf
  /var/lib/condor/execute/dir_4246/neb_bin/3ob-3-1/C-H.skf
  /var/lib/condor/execute/dir_4246/neb_bin/3ob-3-1/O-O.skf
  /var/lib/condor/execute/dir_4246/neb_bin/3ob-3-1/O-F.skf
  /var/lib/condor/execute/dir_4246/neb_bin/3ob-3-1/O-H.skf
  /var/lib/condor/execute/dir_4246/neb_bin/3ob-3-1/F-F.skf
  /var/lib/condor/execute/dir_4246/neb_bin/3ob-3-1/F-H.skf
  /var/lib/condor/execute/dir_4246/neb_bin/3ob-3-1/H-H.skf
Done.
WARNING!
-> The following 4 node(s) have been ignored by the parser:
(1)
Path: dftb_in/Hamiltonian/DFTB/HubbardDerivs/S
Line: 27-27 (File: dftb_in.hsd)
(2)
Path: dftb_in/Hamiltonian/DFTB/MaxAngularMomentum/S
Line: 35-35 (File: dftb_in.hsd)
(3)
Path: dftb_in/Hamiltonian/DFTB/SpinConstants/S
Line: 49-49 (File: dftb_in.hsd)
(4)
Path: dftb_in/Analysis
Line: 62-64 (File: dftb_in.hsd)



Processed input in HSD format written to 'dftb_pin.hsd'

Starting initialization...
--------------------------------------------------------------------------------
OpenMP threads:              4
Chosen random seed:               256266660
Mode:                        Conjugate gradient relaxation
Self consistent charges:     Yes
SCC-tolerance:                 0.100000E-04
Max. scc iterations:                    100
Shell resolved Hubbard:      No
Spin polarisation:           Yes
Nr. of up electrons:            61.000000
Nr. of down electrons:          61.000000
Periodic boundaries:         No
Diagonalizer:                Relatively robust
Mixer:                       Broyden mixer
Mixing parameter:                  0.200000
Maximal SCC-cycles:                     100
Nr. of chrg. vec. in memory:              0
Nr. of moved atoms:                      32
Max. nr. of geometry steps:           20000
Force tolerance:               0.100000E-03
Force evaluation method:     Traditional
Electronic temperature:        0.950000E-03
Initial charges:             Set automatically (system chrg:   0.000E+00)
Included shells:             N:  s, p
                             C:  s, p
                             O:  s, p
                             F:  s, p
                             H:  s
Spin coupling constants:     N   1(s)-1(s):  -0.260000E-01
                             N   1(s)-2(p):  -0.260000E-01
                             N   2(p)-1(s):  -0.260000E-01
                             N   2(p)-2(p):  -0.260000E-01
                             C   1(s)-1(s):  -0.230000E-01
                             C   1(s)-2(p):  -0.230000E-01
                             C   2(p)-1(s):  -0.230000E-01
                             C   2(p)-2(p):  -0.230000E-01
                             O   1(s)-1(s):  -0.280000E-01
                             O   1(s)-2(p):  -0.280000E-01
                             O   2(p)-1(s):  -0.280000E-01
                             O   2(p)-2(p):  -0.280000E-01
                             F   1(s)-1(s):  -0.280000E-01
                             F   1(s)-2(p):  -0.280000E-01
                             F   2(p)-1(s):  -0.280000E-01
                             F   2(p)-2(p):  -0.280000E-01
                             H   1(s)-1(s):  -0.720000E-01
Full 3rd order correction    Yes
Damped SCC                   Yes
Damped species(s):           H                                                 
Extra options:
                             Mulliken analysis
Force type                   original

Geometry converged

--------------------------------------------------------------------------------
DFTB+ running times                          cpu [s]             wall clock [s]
--------------------------------------------------------------------------------
Pre-SCC initialisation                 +     0.33  (  3.8%)      0.05  (  3.9%)
      Sparse H0 and S build                  0.21  (  2.3%)      0.03  (  2.3%)
SCC                                    +     6.60  ( 74.5%)      0.94  ( 74.3%)
  Diagonalisation                            3.84  ( 43.4%)      0.55  ( 42.9%)
      Sparse to dense                        0.30  (  3.4%)      0.03  (  2.0%)
      Dense to sparse                        0.18  (  2.0%)      0.02  (  1.7%)
  Density matrix creation                    0.04  (  0.5%)      0.00  (  0.0%)
Post-SCC processing                    +     1.92  ( 21.7%)      0.28  ( 21.7%)
  Energy-density matrix creation             0.15  (  1.7%)      0.01  (  0.6%)
  Force calculation                          1.69  ( 19.1%)      0.24  ( 18.8%)
--------------------------------------------------------------------------------
Missing                                +     0.00  (  0.0%)      0.00  (  0.1%)
Total                                  =     8.85  (100.0%)      1.27  (100.0%)
--------------------------------------------------------------------------------
