   32
Geometry Step: 0
    N      1.56461115      1.45330023     -2.92692728      5.27189815
    C      1.75765383      1.41742429     -1.78960102      3.83159230
    C      2.00092220      1.41458161     -0.36796322      3.96811904
    C      1.77096989      2.58553089      0.37589354      4.08168202
    C      2.03683408      2.61762621      1.74113379      4.09502068
    C      2.57372402      1.49483795      2.39765152      4.07095160
    C      2.88700938      1.55989148      3.85728581      3.33878231
    O      3.40398124      0.66340333      4.50987626      6.52432701
    O      2.55156730      2.73994186      4.46108129      6.50859254
    C      2.83259009      0.31865864      1.65884814      3.94814541
    C      3.40356083     -0.85963492      2.26786011      3.82192725
    N      3.87309708     -1.83807758      2.66060798      5.24155163
    C      2.49987267      0.25936015      0.28239510      3.87725358
    N      2.90584054     -0.88929053     -0.46891422      5.05433181
    N      2.11599175     -1.56115683     -1.18380966      5.04598931
    C      0.68612344     -1.34356793     -1.14220193      3.96607440
    C     -0.02235840     -1.30627373     -2.35489153      4.09157855
    C     -1.42451647     -1.23091820     -2.36529469      4.09100736
    C     -2.18663753     -1.15219700     -3.64117561      3.31820565
    O     -3.40996941     -1.06173487     -3.71452900      6.56979572
    O     -1.43550158     -1.19142027     -4.77658513      6.50296600
    C     -2.13500249     -1.24970414     -1.15006770      4.06725442
    C     -1.45596444     -1.34229968      0.06300348      4.17719516
    C     -0.05788207     -1.39145737      0.05851618      3.62658509
    F      0.58155387     -1.50994044      1.22921203      7.24713224
    H      1.38435616      3.46809556     -0.12555515      0.89598619
    H      1.84814875      3.52256548      2.31063776      0.88591181
    H      2.79100412      2.69111569      5.40079484      0.61880504
    H      0.52470878     -1.28545004     -3.29313322      0.87667131
    H     -2.02210569     -1.12856793     -5.54725498      0.62098776
    H     -3.21999948     -1.20393475     -1.17815751      0.87982049
    H     -1.99175336     -1.37888676      1.00663561      0.88385819
   32
Geometry Step: 1
    N      1.56457914      1.45332279     -2.92674102      5.27189303
    C      1.75759428      1.41741597     -1.78960134      3.83157681
    C      2.00084445      1.41472626     -0.36799148      3.96820216
    C      1.77097511      2.58552022      0.37589605      4.08157952
    C      2.03689359      2.61773197      1.74091423      4.09504266
    C      2.57378843      1.49485409      2.39774536      4.07092826
    C      2.88696034      1.55979772      3.85712374      3.33878456
    O      3.40389478      0.66346925      4.51001195      6.52425520
    O      2.55165289      2.74013222      4.46105962      6.50880431
    C      2.83267347      0.31865510      1.65895790      3.94817684
    C      3.40348932     -0.85955411      2.26786333      3.82192582
    N      3.87309535     -1.83822310      2.66059224      5.24156918
    C      2.49996565      0.25919033      0.28239467      3.87729039
    N      2.90559401     -0.88928397     -0.46897514      5.05416196
    N      2.11604637     -1.56104687     -1.18381098      5.04587208
    C      0.68629105     -1.34356803     -1.14212910      3.96607106
    C     -0.02237885     -1.30640008     -2.35488102      4.09160271
    C     -1.42448428     -1.23082685     -2.36530715      4.09083984
    C     -2.18652353     -1.15215977     -3.64107196      3.31831309
    O     -3.41019460     -1.06173298     -3.71453656      6.56986574
    O     -1.43560978     -1.19131902     -4.77689019      6.50304567
    C     -2.13498305     -1.24978625     -1.15008273      4.06730450
    C     -1.45586885     -1.34232506      0.06319400      4.17720216
    C     -0.05797426     -1.39164465      0.05842589      3.62657717
    F      0.58159757     -1.51008595      1.22925016      7.24725732
    H      1.38438136      3.46800656     -0.12544248      0.89598777
    H      1.84817026      3.52253107      2.31068460      0.88589531
    H      2.79092345      2.69123916      5.40077643      0.61879263
    H      0.52475797     -1.28555331     -3.29331470      0.87669987
    H     -2.02202182     -1.12852689     -5.54715972      0.62092195
    H     -3.21996876     -1.20382068     -1.17807428      0.87979138
    H     -1.99173079     -1.37891470      1.00649126      0.88376907
   32
Geometry Step: 2
    N      1.56460263      1.45330623     -2.92687769      5.27190007
    C      1.75763798      1.41742208     -1.78960111      3.83158478
    C      2.00090150      1.41462012     -0.36797075      3.96814337
    C      1.77097128      2.58552805      0.37589420      4.08164949
    C      2.03684992      2.61765437      1.74107534      4.09502921
    C      2.57374117      1.49484225      2.39767651      4.07094964
    C      2.88699633      1.55986652      3.85724266      3.33878374
    O      3.40395822      0.66342088      4.50991239      6.52430789
    O      2.55159009      2.73999253      4.46107552      6.50864921
    C      2.83261229      0.31865770      1.65887736      3.94815267
    C      3.40354179     -0.85961340      2.26786097      3.82192443
    N      3.87309662     -1.83811632      2.66060379      5.24155908
    C      2.49989742      0.25931494      0.28239499      3.87726496
    N      2.90577490     -0.88928879     -0.46893044      5.05428201
    N      2.11600629     -1.56112755     -1.18381001      5.04595480
    C      0.68616806     -1.34356795     -1.14218254      3.96606763
    C     -0.02236384     -1.30630737     -2.35488873      4.09158415
    C     -1.42450790     -1.23089388     -2.36529801      4.09096146
    C     -2.18660718     -1.15218709     -3.64114802      3.31823683
    O     -3.41002936     -1.06173437     -3.71453101      6.56981524
    O     -1.43553039     -1.19139332     -4.77666634      6.50298671
    C     -2.13499732     -1.24972600     -1.15007170      4.06727119
    C     -1.45593899     -1.34230644      0.06305420      4.17719550
    C     -0.05790661     -1.39150723      0.05849214      3.62658699
    F      0.58156550     -1.50997918      1.22922218      7.24716737
    H      1.38436287      3.46807187     -0.12552515      0.89598648
    H      1.84815448      3.52255632      2.31065023      0.88590695
    H      2.79098264      2.69114856      5.40078994      0.61880114
    H      0.52472187     -1.28547753     -3.29318153      0.87667890
    H     -2.02208336     -1.12855701     -5.54722962      0.62096918
    H     -3.21999130     -1.20390438     -1.17813535      0.87981384
    H     -1.99174735     -1.37889420      1.00659718      0.88383511
   32
Geometry Step: 3
    N      1.56457880      1.45331600     -2.92686693      5.27191021
    C      1.75762287      1.41742117     -1.78953878      3.83158065
    C      2.00089176      1.41462161     -0.36796957      3.96815601
    C      1.77097004      2.58553173      0.37587878      4.08164931
    C      2.03688993      2.61767557      1.74104418      4.09503175
    C      2.57375463      1.49486240      2.39767471      4.07093651
    C      2.88698126      1.55985197      3.85721894      3.33878286
    O      3.40391780      0.66344991      4.50995672      6.52428823
    O      2.55162517      2.74005297      4.46104747      6.50869135
    C      2.83263731      0.31866508      1.65889843      3.94817423
    C      3.40355100     -0.85965825      2.26789793      3.82192595
    N      3.87306633     -1.83811411      2.66057263      5.24155374
    C      2.49990965      0.25930009      0.28239453      3.87724711
    N      2.90573408     -0.88925925     -0.46891815      5.05428359
    N      2.11599152     -1.56111908     -1.18384675      5.04595111
    C      0.68619638     -1.34357133     -1.14218013      3.96605261
    C     -0.02233830     -1.30635499     -2.35488731      4.09157934
    C     -1.42449955     -1.23086318     -2.36529532      4.09096948
    C     -2.18663758     -1.15216517     -3.64115223      3.31823695
    O     -3.41003302     -1.06174014     -3.71452524      6.56977453
    O     -1.43554624     -1.19135607     -4.77670429      6.50301658
    C     -2.13497677     -1.24975507     -1.15005235      4.06727107
    C     -1.45592694     -1.34231665      0.06306963      4.17719414
    C     -0.05790357     -1.39158120      0.05848444      3.62659318
    F      0.58157602     -1.51003754      1.22922443      7.24717341
    H      1.38436848      3.46804554     -0.12548592      0.89597615
    H      1.84816297      3.52254273      2.31066343      0.88590238
    H      2.79095249      2.69119677      5.40078727      0.61880130
    H      0.52473178     -1.28551954     -3.29323797      0.87668039
    H     -2.02209157     -1.12853588     -5.54724027      0.62096831
    H     -3.21997968     -1.20385882     -1.17810277      0.87982092
    H     -1.99174677     -1.37890685      1.00656207      0.88382664
   32
Geometry Step: 4
    N      1.56454024      1.45333181     -2.92684953      5.27193606
    C      1.75759841      1.41741970     -1.78943793      3.83156618
    C      2.00087600      1.41462403     -0.36796767      3.96816505
    C      1.77096804      2.58553767      0.37585383      4.08164997
    C      2.03695466      2.61770989      1.74099378      4.09504281
    C      2.57377641      1.49489500      2.39767180      4.07092596
    C      2.88695689      1.55982843      3.85718056      3.33878562
    O      3.40385239      0.66349688      4.51002844      6.52425591
    O      2.55168194      2.74015075      4.46100209      6.50875472
    C      2.83267779      0.31867702      1.65893253      3.94820314
    C      3.40356590     -0.85973080      2.26795773      3.82192866
    N      3.87301733     -1.83811054      2.66052220      5.24154505
    C      2.49992944      0.25927606      0.28239378      3.87721360
    N      2.90566803     -0.88921145     -0.46889827      5.05428037
    N      2.11596761     -1.56110538     -1.18390621      5.04594676
    C      0.68624221     -1.34357680     -1.14217622      3.96602467
    C     -0.02229697     -1.30643203     -2.35488501      4.09157973
    C     -1.42448603     -1.23081352     -2.36529097      4.09098826
    C     -2.18668677     -1.15212972     -3.64115905      3.31824334
    O     -3.41003894     -1.06174948     -3.71451589      6.56971181
    O     -1.43557189     -1.19129579     -4.77676568      6.50306038
    C     -2.13494353     -1.24980210     -1.15002103      4.06727227
    C     -1.45590743     -1.34233318      0.06309460      4.17719183
    C     -0.05789866     -1.39170089      0.05847196      3.62659386
    F      0.58159303     -1.51013197      1.22922806      7.24718091
    H      1.38437756      3.46800294     -0.12542245      0.89596150
    H      1.84817670      3.52252074      2.31068479      0.88589615
    H      2.79090370      2.69127479      5.40078295      0.61880069
    H      0.52474780     -1.28558751     -3.29332930      0.87668316
    H     -2.02210486     -1.12850169     -5.54725751      0.62096617
    H     -3.21996086     -1.20378509     -1.17805004      0.87983143
    H     -1.99174584     -1.37892732      1.00650526      0.88381398
   32
Geometry Step: 5
    N      1.56456621      1.45332116     -2.92686125      5.27192171
    C      1.75761488      1.41742069     -1.78950583      3.83157322
    C      2.00088661      1.41462240     -0.36796895      3.96815484
    C      1.77096939      2.58553367      0.37587063      4.08164908
    C      2.03691108      2.61768678      1.74102772      4.09503873
    C      2.57376174      1.49487305      2.39767376      4.07093756
    C      2.88697330      1.55984428      3.85720640      3.33878626
    O      3.40389643      0.66346525      4.50998015      6.52427540
    O      2.55164372      2.74008491      4.46103265      6.50870939
    C      2.83265053      0.31866898      1.65890957      3.94818226
    C      3.40355587     -0.85968195      2.26791746      3.82192786
    N      3.87305033     -1.83811295      2.66055615      5.24154926
    C      2.49991612      0.25929224      0.28239428      3.87723608
    N      2.90571250     -0.88924363     -0.46891166      5.05428139
    N      2.11598371     -1.56111461     -1.18386618      5.04594871
    C      0.68621135     -1.34357312     -1.14217885      3.96604196
    C     -0.02232480     -1.30638015     -2.35488656      4.09158390
    C     -1.42449513     -1.23084696     -2.36529390      4.09097789
    C     -2.18665365     -1.15215359     -3.64115446      3.31824179
    O     -3.41003496     -1.06174319     -3.71452218      6.56975348
    O     -1.43555462     -1.19133638     -4.77672434      6.50302973
    C     -2.13496592     -1.24977043     -1.15004212      4.06727059
    C     -1.45592057     -1.34232205      0.06307779      4.17719381
    C     -0.05790197     -1.39162030      0.05848036      3.62659156
    F      0.58158157     -1.51006839      1.22922561      7.24717504
    H      1.38437145      3.46803162     -0.12546519      0.89597231
    H      1.84816745      3.52253554      2.31067041      0.88590083
    H      2.79093655      2.69122226      5.40078586      0.61880041
    H      0.52473701     -1.28554175     -3.29326781      0.87668143
    H     -2.02209591     -1.12852471     -5.54724590      0.62096715
    H     -3.21997353     -1.20383473     -1.17808554      0.87982313
    H     -1.99174647     -1.37891354      1.00654351      0.88382326
   32
Geometry Step: 6
    N      1.56453317      1.45333599     -2.92678979      5.27191540
    C      1.75757400      1.41742162     -1.78947964      3.83157659
    C      2.00088368      1.41459755     -0.36793905      3.96816301
    C      1.77097517      2.58553179      0.37585369      4.08165750
    C      2.03698390      2.61771427      1.74100318      4.09504125
    C      2.57378429      1.49490031      2.39764810      4.07093030
    C      2.88694930      1.55985325      3.85720000      3.33878514
    O      3.40382260      0.66351068      4.51004951      6.52426416
    O      2.55170640      2.74017286      4.46097407      6.50873248
    C      2.83269333      0.31866940      1.65893145      3.94820077
    C      3.40353004     -0.85967021      2.26794455      3.82192273
    N      3.87303378     -1.83818573      2.66053368      5.24155893
    C      2.49992283      0.25929874      0.28241098      3.87721304
    N      2.90566250     -0.88920622     -0.46889474      5.05429922
    N      2.11596682     -1.56109680     -1.18392433      5.04595272
    C      0.68623048     -1.34358931     -1.14218853      3.96603116
    C     -0.02228065     -1.30645442     -2.35490370      4.09157595
    C     -1.42447570     -1.23080398     -2.36528585      4.09100385
    C     -2.18669656     -1.15211533     -3.64117783      3.31823280
    O     -3.41003610     -1.06175352     -3.71451031      6.56971509
    O     -1.43557010     -1.19127310     -4.77673932      6.50303950
    C     -2.13493349     -1.24981050     -1.15001335      4.06726467
    C     -1.45590040     -1.34234534      0.06307212      4.17719318
    C     -0.05787351     -1.39174071      0.05848407      3.62659605
    F      0.58159622     -1.51017098      1.22922113      7.24716232
    H      1.38437214      3.46800482     -0.12541092      0.89596096
    H      1.84818270      3.52251423      2.31068892      0.88589545
    H      2.79088454      2.69130549      5.40077674      0.61880237
    H      0.52474483     -1.28561541     -3.29334500      0.87668040
    H     -2.02213351     -1.12848514     -5.54729339      0.62097443
    H     -3.21994887     -1.20375672     -1.17802906      0.87983330
    H     -1.99175355     -1.37893717      1.00650422      0.88382528
   32
Geometry Step: 7
    N      1.56447972      1.45335999     -2.92667415      5.27191212
    C      1.75750785      1.41742312     -1.78943726      3.83157638
    C      2.00087894      1.41455733     -0.36789066      3.96816848
    C      1.77098454      2.58552876      0.37582628      4.08167098
    C      2.03710172      2.61775876      1.74096347      4.09505059
    C      2.57382077      1.49494443      2.39760659      4.07092749
    C      2.88691047      1.55986775      3.85718964      3.33878685
    O      3.40370315      0.66358418      4.51016174      6.52424444
    O      2.55180783      2.74031517      4.46087930      6.50876610
    C      2.83276257      0.31867008      1.65896685      3.94822788
    C      3.40348826     -0.85965122      2.26798838      3.82191662
    N      3.87300700     -1.83830349      2.66049733      5.24157060
    C      2.49993370      0.25930926      0.28243800      3.87717520
    N      2.90558158     -0.88914567     -0.46886736      5.05432320
    N      2.11593948     -1.56106800     -1.18401842      5.04595802
    C      0.68626143     -1.34361550     -1.14220419      3.96601111
    C     -0.02220922     -1.30657459     -2.35493142      4.09156993
    C     -1.42444426     -1.23073444     -2.36527283      4.09104890
    C     -2.18676599     -1.15205342     -3.64121563      3.31822355
    O     -3.41003795     -1.06177023     -3.71449110      6.56965545
    O     -1.43559515     -1.19117072     -4.77676357      6.50305222
    C     -2.13488102     -1.24987534     -1.14996681      4.06725455
    C     -1.45586778     -1.34238301      0.06306295      4.17719135
    C     -0.05782747     -1.39193555      0.05849006      3.62659881
    F      0.58161992     -1.51033696      1.22921386      7.24714153
    H      1.38437327      3.46796146     -0.12532310      0.89594394
    H      1.84820737      3.52247973      2.31071886      0.88588723
    H      2.79080039      2.69144016      5.40076198      0.61880465
    H      0.52475747     -1.28573460     -3.29346991      0.87667898
    H     -2.02219434     -1.12842110     -5.54737022      0.62098537
    H     -3.21990897     -1.20363048     -1.17793767      0.87984866
    H     -1.99176500     -1.37897541      1.00644065      0.88382883
   32
Geometry Step: 8
    N      1.56449724      1.45335212     -2.92671205      5.27191682
    C      1.75752953      1.41742263     -1.78945115      3.83157373
    C      2.00088049      1.41457051     -0.36790652      3.96816136
    C      1.77098147      2.58552975      0.37583526      4.08166462
    C      2.03706310      2.61774418      1.74097649      4.09505021
    C      2.57380882      1.49492997      2.39762020      4.07093430
    C      2.88692320      1.55986300      3.85719304      3.33878947
    O      3.40374230      0.66356009      4.51012495      6.52424829
    O      2.55177459      2.74026852      4.46091036      6.50875449
    C      2.83273988      0.31866985      1.65895524      3.94821784
    C      3.40350195     -0.85965745      2.26797402      3.82191974
    N      3.87301578     -1.83826489      2.66050925      5.24156469
    C      2.49993014      0.25930581      0.28242915      3.87718695
    N      2.90560810     -0.88916552     -0.46887634      5.05431434
    N      2.11594844     -1.56107744     -1.18398758      5.04595487
    C      0.68625129     -1.34360692     -1.14219906      3.96601462
    C     -0.02223264     -1.30653520     -2.35492234      4.09157581
    C     -1.42445457     -1.23075723     -2.36527710      4.09103691
    C     -2.18674324     -1.15207371     -3.64120324      3.31823125
    O     -3.41003735     -1.06176476     -3.71449739      6.56967355
    O     -1.43558694     -1.19120428     -4.77675562      6.50304844
    C     -2.13489822     -1.24985409     -1.14998207      4.06725934
    C     -1.45587848     -1.34237066      0.06306595      4.17719133
    C     -0.05784256     -1.39187169      0.05848810      3.62659273
    F      0.58161215     -1.51028256      1.22921624      7.24714891
    H      1.38437290      3.46797567     -0.12535189      0.89595030
    H      1.84819928      3.52249104      2.31070905      0.88589062
    H      2.79082797      2.69139602      5.40076682      0.61880327
    H      0.52475333     -1.28569553     -3.29342897      0.87667996
    H     -2.02217440     -1.12844209     -5.54734503      0.62098088
    H     -3.21992205     -1.20367186     -1.17796763      0.87984283
    H     -1.99176125     -1.37896288      1.00646149      0.88382755
   32
Geometry Step: 9
    N      1.56440642      1.45338938     -2.92662691      5.27192702
    C      1.75744608      1.41741288     -1.78934663      3.83157103
    C      2.00087246      1.41452204     -0.36783812      3.96815592
    C      1.77103059      2.58548917      0.37586101      4.08164814
    C      2.03721126      2.61779475      1.74094726      4.09507041
    C      2.57388241      1.49494814      2.39756718      4.07094550
    C      2.88687725      1.55997171      3.85723114      3.33878948
    O      3.40356653      0.66363710      4.51026538      6.52428628
    O      2.55191747      2.74043688      4.46078291      6.50870216
    C      2.83280654      0.31869181      1.65895767      3.94820557
    C      3.40348266     -0.85970170      2.26806066      3.82192762
    N      3.87294649     -1.83836859      2.66043867      5.24156397
    C      2.49992659      0.25932898      0.28251165      3.87720261
    N      2.90551782     -0.88915558     -0.46889347      5.05430641
    N      2.11598040     -1.56098665     -1.18405193      5.04594029
    C      0.68624520     -1.34368542     -1.14223661      3.96604988
    C     -0.02220172     -1.30666769     -2.35502117      4.09158262
    C     -1.42439152     -1.23069979     -2.36527836      4.09101395
    C     -2.18670672     -1.15199702     -3.64122138      3.31824707
    O     -3.41012699     -1.06178031     -3.71447816      6.56975732
    O     -1.43564346     -1.19105735     -4.77677214      6.50297556
    C     -2.13485306     -1.24989961     -1.14998991      4.06725573
    C     -1.45579163     -1.34245313      0.06304589      4.17720364
    C     -0.05776790     -1.39210394      0.05849396      3.62657494
    F      0.58165131     -1.51052224      1.22920484      7.24712520
    H      1.38434618      3.46797245     -0.12527784      0.89596535
    H      1.84823729      3.52245598      2.31074268      0.88588511
    H      2.79070742      2.69158519      5.40071210      0.61880146
    H      0.52475032     -1.28586393     -3.29354407      0.87667218
    H     -2.02225652     -1.12835124     -5.54744997      0.62098154
    H     -3.21984903     -1.20350050     -1.17784111      0.87982627
    H     -1.99178989     -1.37902134      1.00641638      0.88383977
   32
Geometry Step: 10
    N      1.56425947      1.45344966     -2.92648913      5.27194714
    C      1.75731106      1.41739712     -1.78917749      3.83156159
    C      2.00085947      1.41444361     -0.36772746      3.96814012
    C      1.77111006      2.58542350      0.37590266      4.08162460
    C      2.03745098      2.61787656      1.74089996      4.09510246
    C      2.57400148      1.49497753      2.39748140      4.07096955
    C      2.88680291      1.56014761      3.85729279      3.33879066
    O      3.40328212      0.66376172      4.51049260      6.52434656
    O      2.55214866      2.74070929      4.46057669      6.50862325
    C      2.83291441      0.31872733      1.65896159      3.94819254
    C      3.40345143     -0.85977331      2.26820086      3.82194036
    N      3.87283437     -1.83853639      2.66032448      5.24156442
    C      2.49992086      0.25936647      0.28264516      3.87721429
    N      2.90537175     -0.88913951     -0.46892119      5.05429244
    N      2.11603211     -1.56083974     -1.18415606      5.04591362
    C      0.68623534     -1.34381245     -1.14229738      3.96608320
    C     -0.02215171     -1.30688206     -2.35518109      4.09158032
    C     -1.42428950     -1.23060685     -2.36528040      4.09098549
    C     -2.18664763     -1.15187292     -3.64125072      3.31826824
    O     -3.41027202     -1.06180548     -3.71444704      6.56989321
    O     -1.43573490     -1.19081962     -4.77679887      6.50286132
    C     -2.13477999     -1.24997326     -1.15000260      4.06727186
    C     -1.45565111     -1.34258656      0.06301344      4.17722553
    C     -0.05764709     -1.39247972      0.05850346      3.62654060
    F      0.58171466     -1.51091005      1.22918638      7.24709220
    H      1.38430295      3.46796723     -0.12515804      0.89598902
    H      1.84829880      3.52239926      2.31079709      0.88587803
    H      2.79051237      2.69189127      5.40062356      0.61879915
    H      0.52474546     -1.28613641     -3.29373031      0.87666036
    H     -2.02238941     -1.12820425     -5.54761975      0.62098356
    H     -3.21973089     -1.20322323     -1.17763640      0.87980500
    H     -1.99183622     -1.37911594      1.00634339      0.88385931
   32
Geometry Step: 11
    N      1.56435076      1.45341221     -2.92657472      5.27193344
    C      1.75739494      1.41740691     -1.78928256      3.83156747
    C      2.00086754      1.41449233     -0.36779621      3.96814970
    C      1.77106069      2.58546429      0.37587678      4.08164130
    C      2.03730206      2.61782574      1.74092934      4.09507934
    C      2.57392751      1.49495927      2.39753469      4.07095450
    C      2.88684910      1.56003834      3.85725449      3.33878865
    O      3.40345880      0.66368430      4.51035145      6.52430981
    O      2.55200504      2.74054006      4.46070480      6.50867542
    C      2.83284740      0.31870526      1.65895916      3.94820387
    C      3.40347083     -0.85972882      2.26811376      3.82193219
    N      3.87290402     -1.83843215      2.66039542      5.24156488
    C      2.49992442      0.25934318      0.28256222      3.87720234
    N      2.90546249     -0.88914950     -0.46890397      5.05430104
    N      2.11599999     -1.56093100     -1.18409137      5.04593127
    C      0.68624146     -1.34373354     -1.14225963      3.96605621
    C     -0.02218278     -1.30674889     -2.35508174      4.09157586
    C     -1.42435287     -1.23066459     -2.36527913      4.09100608
    C     -2.18668434     -1.15195001     -3.64123249      3.31825052
    O     -3.41018192     -1.06178985     -3.71446637      6.56980884
    O     -1.43567809     -1.19096731     -4.77678226      6.50293518
    C     -2.13482538     -1.24992751     -1.14999471      4.06726888
    C     -1.45573840     -1.34250366      0.06303360      4.17721116
    C     -0.05772214     -1.39224627      0.05849756      3.62656097
    F      0.58167531     -1.51066913      1.22919785      7.24711496
    H      1.38432981      3.46797047     -0.12523247      0.89597336
    H      1.84826059      3.52243450      2.31076329      0.88588297
    H      2.79063354      2.69170112      5.40067856      0.61880122
    H      0.52474848     -1.28596714     -3.29361461      0.87666798
    H     -2.02230686     -1.12829557     -5.54751427      0.62098297
    H     -3.21980429     -1.20339548     -1.17776357      0.87982115
    H     -1.99180744     -1.37905717      1.00638873      0.88384647
   32
Geometry Step: 12
    N      1.56418713      1.45347903     -2.92643902      5.27193631
    C      1.75724800      1.41736435     -1.78915740      3.83156603
    C      2.00083673      1.41447102     -0.36769758      3.96815828
    C      1.77115531      2.58545013      0.37596079      4.08160836
    C      2.03752120      2.61786199      1.74093495      4.09509348
    C      2.57409752      1.49498213      2.39756494      4.07097623
    C      2.88683191      1.56023885      3.85732730      3.33877080
    O      3.40312214      0.66380635      4.51055095      6.52434801
    O      2.55222067      2.74084260      4.46052127      6.50863085
    C      2.83295423      0.31870049      1.65900779      3.94820148
    C      3.40343316     -0.85977385      2.26821671      3.82192658
    N      3.87277815     -1.83860170      2.66028884      5.24157485
    C      2.49989273      0.25927713      0.28266558      3.87719036
    N      2.90550279     -0.88908342     -0.46886612      5.05430062
    N      2.11599520     -1.56084713     -1.18422900      5.04599555
    C      0.68620662     -1.34392767     -1.14238182      3.96601008
    C     -0.02218918     -1.30691172     -2.35522462      4.09156453
    C     -1.42430162     -1.23064380     -2.36537732      4.09097165
    C     -2.18673582     -1.15181886     -3.64120622      3.31823238
    O     -3.41016904     -1.06182266     -3.71442337      6.56975007
    O     -1.43584413     -1.19070376     -4.77689665      6.50302241
    C     -2.13471432     -1.24991948     -1.15005737      4.06728807
    C     -1.45561223     -1.34270015      0.06301068      4.17721325
    C     -0.05761893     -1.39256113      0.05844985      3.62657174
    F      0.58177678     -1.51109261      1.22919442      7.24711687
    H      1.38426657      3.46799497     -0.12515826      0.89599635
    H      1.84833499      3.52241029      2.31080997      0.88588640
    H      2.79042996      2.69202509      5.40053644      0.61879637
    H      0.52472595     -1.28625157     -3.29374103      0.87665649
    H     -2.02238316     -1.12814410     -5.54758619      0.62097158
    H     -3.21967857     -1.20311416     -1.17756685      0.87982606
    H     -1.99184050     -1.37916625      1.00633994      0.88384790
   32
Geometry Step: 13
    N      1.56392238      1.45358715     -2.92621946      5.27193875
    C      1.75701026      1.41729549     -1.78895487      3.83156470
    C      2.00078687      1.41443654     -0.36753800      3.96817394
    C      1.77130841      2.58542721      0.37609672      4.08155903
    C      2.03787577      2.61792065      1.74094403      4.09511505
    C      2.57437261      1.49501913      2.39761390      4.07101161
    C      2.88680411      1.56056327      3.85744510      3.33874120