   35
Geometry Step: 0
    C      2.42936464      2.17080153     -1.71766442      3.94273393
    O      3.25949513      1.02759622     -1.52862491      6.33514036
    C      2.70622557     -0.11454877     -2.06055470      3.72678459
    C      3.27179280     -0.65955401     -3.22775303      4.15753683
    C      4.31657913      0.02638075     -4.01424673      3.30556597
    O      5.26336022     -0.51826063     -4.55103105      6.57036737
    O      4.06132065      1.33316682     -4.19110499      6.49259013
    C      2.88785930     -1.93330086     -3.66983524      4.08923872
    C      1.95681165     -2.66874349     -2.94368981      4.19719629
    C      1.40432729     -2.12531439     -1.78646715      3.63330495
    F      0.56204534     -2.89263829     -1.07762685      7.25018455
    C      1.72683262     -0.83221402     -1.34134645      4.01605542
    N      1.20970384     -0.32479390     -0.12783945      5.03368113
    N      0.00000000      0.00000000      0.00000000      5.07071803
    C     -0.50590090      0.50429100      1.21196032      3.82839170
    C     -0.80228782     -0.37566466      2.26001784      4.12703203
    C     -1.27223218      0.10319838      3.48699833      3.91580222
    C     -1.59762287     -0.81434915      4.53896288      3.83200311
    N     -1.86492114     -1.55410736      5.39166640      5.27310472
    C     -1.42363228      1.47826666      3.68219232      4.10212083
    C     -1.09104497      2.36988830      2.65577216      4.06616687
    C     -1.24719882      3.82147475      2.90779882      3.32118945
    O     -1.61748757      4.32211133      3.95224668      6.56170477
    O     -0.94248124      4.57090099      1.83510653      6.49707838
    C     -0.61889993      1.87980202      1.43224171      4.12647387
    H      1.88361162      2.14219035     -2.66723008      0.94761699
    H      1.73572097      2.27486005     -0.87905312      0.95610798
    H      3.07472482      3.05442172     -1.72750235      0.93779165
    H      4.81431719      1.64863971     -4.73371466      0.62520313
    H      3.33907028     -2.36401776     -4.56264826      0.88185761
    H      1.67625346     -3.67135353     -3.25391674      0.88191612
    H     -0.67455242     -1.44625137      2.10039077      0.89557150
    H     -1.78933910      1.85953075      4.63594060      0.88219114
    H     -1.08680984      5.49269750      2.13964669      0.62257441
    H     -0.32217903      2.56648962      0.64618723      0.89700323
   35
Geometry Step: 1
    C      2.45150341      2.20089860     -1.70664346      3.92828647
    O      3.23952351      1.04665172     -1.55098571      6.33496780
    C      2.73446734     -0.14507312     -2.04964388      3.71643873
    C      3.27387181     -0.69096454     -3.22356101      4.13568667
    C      4.27009509      0.02242363     -3.99230593      3.33421398
    O      5.30300086     -0.53182162     -4.57323925      6.59418125
    O      4.11500463      1.38212054     -4.22442955      6.50235868
    C      2.87995114     -1.95310345     -3.66836340      4.07016443
    C      1.96055231     -2.68925814     -2.95509456      4.20430984
    C      1.39155294     -2.14108310     -1.79302577      3.60924324
    F      0.55585924     -2.88129006     -1.07114979      7.23830064
    C      1.69371260     -0.84487189     -1.37292298      4.03744512
    N      1.27959131     -0.30151661     -0.04256870      5.05890403
    N     -0.07033158     -0.00672545     -0.08811054      5.10880261
    C     -0.45404145      0.50106994      1.27073241      3.83701574
    C     -0.81239494     -0.41305824      2.25425278      4.10883491
    C     -1.27480779      0.10604791      3.47458353      3.91972778
    C     -1.61015082     -0.85421612      4.58473841      3.85089529
    N     -1.85640010     -1.53040773      5.36393983      5.24943573
    C     -1.43096204      1.48441819      3.70141712      4.08774227
    C     -1.09837491      2.35133288      2.67246483      4.03831642
    C     -1.23341517      3.76086838      2.87493565      3.35544619
    O     -1.63257848      4.34868986      3.99493419      6.58956789
    O     -0.94551514      4.65110451      1.83642869      6.51198198
    C     -0.62653934      1.90057228      1.40963062      4.12932672
    H      1.88147607      2.13513827     -2.66651464      0.96012118
    H      1.71827531      2.27575974     -0.87321095      0.96369740
    H      3.07609069      3.05619754     -1.72598692      0.92564743
    H      4.79128721      1.66503639     -4.72470575      0.61279154
    H      3.33913528     -2.35672788     -4.55789777      0.87686212
    H      1.67556255     -3.66948321     -3.25274018      0.87679376
    H     -0.67451477     -1.44160941      2.10376715      0.87895182
    H     -1.78640311      1.86121211      4.62871600      0.86663277
    H     -1.07797961      5.48153560      2.11233001      0.60908163
    H     -0.32327762      2.57172874      0.64550878      0.87782592
   35
Geometry Step: 2
    C      2.43418266      2.17735150     -1.71526595      3.93962058
    O      3.25514875      1.03174323     -1.53349125      6.33488726
    C      2.71237177     -0.12119173     -2.05818020      3.72369038
    C      3.27224525     -0.66638983     -3.22684073      4.15277088
    C      4.30646289      0.02551957     -4.00947179      3.31095223
    O      5.27198714     -0.52121188     -4.55586418      6.57770156
    O      4.07300380      1.34382053     -4.19835735      6.49482827
    C      2.88613826     -1.93761046     -3.66951493      4.08396581
    C      1.95762572     -2.67320805     -2.94617181      4.19922131
    C      1.40154723     -2.12874610     -1.78789449      3.62718312
    F      0.56069907     -2.89016860     -1.07621726      7.24741005
    C      1.71962477     -0.83496873     -1.34821839      4.02008800
    N      1.22491332     -0.31972811     -0.10928214      5.04230643
    N     -0.01530613     -0.00146365     -0.01917534      5.08282690
    C     -0.49461482      0.50359001      1.22475078      3.82848202
    C     -0.80448741     -0.38380256      2.25876320      4.12233098
    C     -1.27279271      0.10381852      3.48429652      3.91749740
    C     -1.60034931     -0.82302532      4.54892492      3.83562805
    N     -1.86306673     -1.54894966      5.38563231      5.26736623
    C     -1.42522744      1.47960540      3.68637618      4.09807526
    C     -1.09264017      2.36585011      2.65940495      4.05950269
    C     -1.24419911      3.80828510      2.90064687      3.32749278
    O     -1.62077178      4.32789557      3.96153668      6.57098281
    O     -0.94314150      4.58835553      1.83539427      6.50036497
    C     -0.62056248      1.88432221      1.42732090      4.12704116
    H      1.88314686      2.14065562     -2.66707438      0.95041589
    H      1.73192430      2.27505585     -0.87778170      0.95751425
    H      3.07502207      3.05480819     -1.72717255      0.93518859
    H      4.80930522      1.65220809     -4.73175407      0.62180969
    H      3.33908443     -2.36243128     -4.56161442      0.88064180
    H      1.67610310     -3.67094649     -3.25366069      0.88074708
    H     -0.67454422     -1.44524115      2.10112557      0.89163406
    H     -1.78870015      1.85989666      4.63436832      0.87847359
    H     -1.08488813      5.49026836      2.13370181      0.61886743
    H     -0.32241811      2.56762980      0.64603958      0.89249050
   35
Geometry Step: 3
    C      2.43692764      2.18504211     -1.71272638      3.93637114
    O      3.24975606      1.03597279     -1.54156585      6.33668632
    C      2.71946346     -0.13107779     -2.05308481      3.71762960
    C      3.27305976     -0.67523067     -3.22514068      4.15545776
    C      4.30704781      0.02299933     -4.01318057      3.31186872
    O      5.27108178     -0.51859089     -4.55541251      6.57063691
    O      4.08244884      1.35162792     -4.20165716      6.50152972
    C      2.88405059     -1.94520390     -3.66947748      4.08048544
    C      1.95755934     -2.67969718     -2.94840784      4.20124561
    C      1.39689423     -2.13371658     -1.79048285      3.62111591
    F      0.55798700     -2.88681493     -1.07389334      7.24536671
    C      1.71165308     -0.83590588     -1.35427246      4.03245876
    N      1.22600226     -0.30856911     -0.08545845      5.04381739
    N     -0.01676780     -0.00816446     -0.04351235      5.08611142
    C     -0.47786168      0.50455986      1.23697324      3.83627112
    C     -0.80800082     -0.39169292      2.25895740      4.11831474
    C     -1.27534217      0.10039669      3.48600554      3.91825190
    C     -1.59678179     -0.81412418      4.53859695      3.83435843
    N     -1.86671503     -1.55920718      5.39731545      5.27102593
    C     -1.42679562      1.47728002      3.69110267      4.09586534
    C     -1.09351511      2.36103465      2.66056922      4.06019611
    C     -1.24556748      3.80578494      2.90417231      3.32858415
    O     -1.61947631      4.32695049      3.95825365      6.56278301
    O     -0.94332485      4.59942583      1.83607235      6.50939000
    C     -0.62381985      1.88553552      1.42458362      4.12111143
    H      1.88315629      2.13887977     -2.66543275      0.95212143
    H      1.72649561      2.27571680     -0.87640717      0.95922831
    H      3.07735056      3.05766586     -1.72643191      0.93357662
    H      4.81019710      1.66101431     -4.73481973      0.62146510
    H      3.33930889     -2.36025290     -4.56052295      0.88088653
    H      1.67549746     -3.67214250     -3.25393880      0.88040800
    H     -0.67437878     -1.44686535      2.10183734      0.88922314
    H     -1.78836778      1.86122520      4.63370827      0.87740560
    H     -1.08375727      5.49700144      2.12855769      0.61825369
    H     -0.32263901      2.57073914      0.64439961      0.89049800
   35
Geometry Step: 4
    C      2.43641598      2.18360861     -1.71319975      3.93697599
    O      3.25076124      1.03518441     -1.54006077      6.33633834
    C      2.71814159     -0.12923506     -2.05403457      3.71870699
    C      3.27290794     -0.67358276     -3.22545756      4.15499066
    C      4.30693878      0.02346910     -4.01248926      3.31169245
    O      5.27125054     -0.51907943     -4.55549670      6.57196067
    O      4.08068831      1.35017264     -4.20104208      6.50027654
    C      2.88443973     -1.94378850     -3.66948446      4.08108950
    C      1.95757172     -2.67848762     -2.94799105      4.20088795
    C      1.39776154     -2.13279010     -1.79000039      3.62220810
    F      0.55849252     -2.88744005     -1.07432651      7.24574342
    C      1.71313898     -0.83573120     -1.35314400      4.03015152
    N      1.22579928     -0.31064911     -0.08989912      5.04364251
    N     -0.01649535     -0.00691545     -0.03897600      5.08561927
    C     -0.48098442      0.50437908      1.23469501      3.83476628
    C     -0.80734593     -0.39022218      2.25892120      4.11903744
    C     -1.27486696      0.10103451      3.48568698      3.91815754
    C     -1.59744677     -0.81578333      4.54052206      3.83454764
    N     -1.86603500     -1.55729520      5.39513774      5.27034887
    C     -1.42650332      1.47771347      3.69022167      4.09624154
    C     -1.09335202      2.36193224      2.66035220      4.06008742
    C     -1.24531242      3.80625096      2.90351518      3.32837247
    O     -1.61971778      4.32712665      3.95886560      6.56432099
    O     -0.94329067      4.59736235      1.83594596      6.50770334
    C     -0.62321269      1.88530936      1.42509384      4.12218362
    H      1.88315453      2.13921078     -2.66573874      0.95181076
    H      1.72750750      2.27559360     -0.87666338      0.95890197
    H      3.07691653      3.05713319     -1.72656997      0.93387976
    H      4.81003086      1.65937285     -4.73424830      0.62153109
    H      3.33926705     -2.36065894     -4.56072639      0.88084246
    H      1.67561035     -3.67191957     -3.25388696      0.88047214
    H     -0.67440962     -1.44656260      2.10170467      0.88966636
    H     -1.78842973      1.86097756      4.63383130      0.87760487
    H     -1.08396806      5.49574641      2.12951654      0.61837163
    H     -0.32259784      2.57015957      0.64470530      0.89086787
   35
Geometry Step: 5
    C      2.43421839      2.18846507     -1.71191228      3.93574202
    O      3.24723765      1.03696241     -1.54849858      6.33866174
    C      2.72253201     -0.13794659     -2.04799929      3.71463262
    C      3.27514817     -0.68079389     -3.22453748      4.16055854
    C      4.31186485      0.02321628     -4.01955854      3.30906344
    O      5.26685514     -0.51521295     -4.55335766      6.56408161
    O      4.08404017      1.35190899     -4.19864042      6.50259361
    C      2.88343112     -1.95082871     -3.66928598      4.08012498
    C      1.95553017     -2.68490452     -2.94807139      4.20227240
    C      1.39335872     -2.13544488     -1.79221186      3.61954537
    F      0.55451780     -2.88492756     -1.07170764      7.24579386
    C      1.70848435     -0.83457381     -1.35359203      4.03941256
    N      1.21932594     -0.30129630     -0.07587579      5.04162280
    N     -0.01014383     -0.01287750     -0.05284963      5.08284709
    C     -0.46646779      0.50441309      1.23911075      3.84125428
    C     -0.80981092     -0.39217406      2.25898976      4.11732819
    C     -1.27684220      0.09897012      3.48581119      3.91751478
    C     -1.60028860     -0.82367644      4.54937443      3.83571179
    N     -1.86469242     -1.55407209      5.39130519      5.26878017
    C     -1.42667497      1.47320201      3.69153716      4.09589244
    C     -1.09395786      2.35919145      2.66016194      4.06460084
    C     -1.24795252      3.81200554      2.90861275      3.32533363
    O     -1.61690310      4.32281207      3.95167846      6.55475702
    O     -0.94280951      4.59744171      1.83667741      6.51142363
    C     -0.62588291      1.88239454      1.42544098      4.11761329
    H      1.88367144      2.13836737     -2.66278683      0.95115765
    H      1.72251621      2.27677989     -0.87592582      0.95893827
    H      3.08106191      3.06224752     -1.72548256      0.93442785
    H      4.81728937      1.67120369     -4.74193763      0.62353578
    H      3.33985666     -2.35919422     -4.56068444      0.88169114
    H      1.67438880     -3.67573087     -3.25504811      0.88045500
    H     -0.67414069     -1.45154930      2.10206943      0.89057169
    H     -1.78873894      1.86299649      4.63504594      0.87918394
    H     -1.08405305      5.51032452      2.12687270      0.62037401
    H     -0.32314313      2.57389719      0.64255510      0.89250196
   35
Geometry Step: 6
    C      2.43474962      2.18729109     -1.71222351      3.93603829
    O      3.24808943      1.03653261     -1.54645886      6.33809073
    C      2.72147069     -0.13584071     -2.04945823      3.71560562
    C      3.27460663     -0.67905071     -3.22475990      4.15921758
    C      4.31067405      0.02327740     -4.01784965      3.30967348
    O      5.26791766     -0.51614761     -4.55387474      6.56603576
    O      4.08322990      1.35148925     -4.19922099      6.50203539
    C      2.88367493     -1.94912684     -3.66933396      4.08034320
    C      1.95602368     -2.68335333     -2.94805197      4.20194445
    C      1.39442303     -2.13480312     -1.79167727      3.62018449
    F      0.55547863     -2.88553491     -1.07234071      7.24578053
    C      1.70960954     -0.83485359     -1.35348373      4.03715445
    N      1.22089077     -0.30355720     -0.07926572      5.04214496
    N     -0.01167922     -0.01143626     -0.04949589      5.08354006
    C     -0.46997697      0.50440487      1.23804331      3.83965734
    C     -0.80921504     -0.39170222      2.25897318      4.11774137
    C     -1.27636471      0.09946916      3.48578116      3.91768413
    C     -1.59960163     -0.82176840      4.54723450      3.83541259
    N     -1.86501697     -1.55485123      5.39223165      5.26916156
    C     -1.42663348      1.47429259      3.69121916      4.09597160
    C     -1.09381141      2.35985399      2.66020793      4.06350013
    C     -1.24731431      3.81061445      2.90738049      3.32603603
    O     -1.61758351      4.32385506      3.95341584      6.55713842
    O     -0.94292583      4.59742253      1.83650059      6.51052454
    C     -0.62523742      1.88309915      1.42535707      4.11872010
    H      1.88354648      2.13857125     -2.66350041      0.95132065
    H      1.72372278      2.27649312     -0.87610411      0.95893047
    H      3.08005983      3.06101121     -1.72574542      0.93429691
    H      4.81553474      1.66834376     -4.74007885      0.62304021
    H      3.33971413     -2.35954829     -4.56069458      0.88148593
    H      1.67468409     -3.67480955     -3.25476742      0.88045945
    H     -0.67420570     -1.45034384      2.10198126      0.89035139
    H     -1.78866420      1.86250844      4.63475232      0.87879759
    H     -1.08403250      5.50680048      2.12751181      0.61987634
    H     -0.32301132      2.57299368      0.64307488      0.89210426
   35
Geometry Step: 7
    C      2.42958105      2.18977292     -1.71174417      3.93658342
    O      3.24683137      1.03612312     -1.55463606      6.33904762
    C      2.72353926     -0.14230323     -2.04449046      3.71663722
    C      3.27857196     -0.68466861     -3.22465436      4.15902364
    C      4.30785744      0.02714461     -4.01976807      3.30883840
    O      5.27113379     -0.51681170     -4.55667620      6.57217714
    O      4.08772469      1.35308226     -4.19725786      6.49644560
    C      2.88408006     -1.95406576     -3.66791111      4.07972751
    C      1.95208215     -2.68921540     -2.94587823      4.20247916
    C      1.39044152     -2.13341040     -1.79205757      3.62068250
    F      0.54983794     -2.88386557     -1.06959776      7.24681927
    C      1.70891624     -0.83425600     -1.34883663      4.03498556
    N      1.22380595     -0.30115437     -0.07872062      5.04290524
    N     -0.01347066     -0.01172848     -0.04931757      5.08298661
    C     -0.46078348      0.50192924      1.23602555      3.83743913
    C     -0.80925076     -0.38988631      2.25750028      4.11702814
    C     -1.27894951      0.09404757      3.48838060      3.91824547
    C     -1.60055986     -0.82315358      4.54801068      3.83369060
    N     -1.86575148     -1.55779212      5.39558577      5.26963848
    C     -1.42584997      1.47044733      3.68988367      4.09402858
    C     -1.09512983      2.35995605      2.66078585      4.06350804
    C     -1.24642059      3.81209515      2.90130301      3.32510715
    O     -1.61846268      4.32364808      3.95697620      6.56450168
    O     -0.94263116      4.59894904      1.83792001      6.50349795
    C     -0.62545725      1.87922424      1.42590881      4.11976273
    H      1.88368674      2.13911006     -2.66017829      0.94953040
    H      1.71907566      2.27829196     -0.87588479      0.95740569
    H      3.08477909      3.06700543     -1.72415432      0.93546704
    H      4.82210440      1.68079499     -4.74729361      0.62367421
    H      3.34077217     -2.35944309     -4.56227585      0.88129142
    H      1.67249373     -3.68197984     -3.25685818      0.87968780
    H     -0.67413230     -1.45705312      2.10231509      0.89265056
    H     -1.78915324      1.86454744      4.63681330      0.87968872
    H     -1.08374226      5.52043823      2.12386045      0.62044192
    H     -0.32474376      2.57577611      0.64220174      0.89437540
   35
Geometry Step: 8
    C      2.42121812      2.19378860     -1.71096859      3.93753332
    O      3.24479579      1.03546055     -1.56786706      6.34063942
    C      2.72688627     -0.15275980     -2.03645245      3.71838645
    C      3.28498799     -0.69375858     -3.22448361      4.15847821
    C      4.30330008      0.03340190     -4.02287214      3.30773583
    O      5.27633759     -0.51788621     -4.56120905      6.58177731
    O      4.09499740      1.35565981     -4.19408145      6.48754225
    C      2.88473557     -1.96205711     -3.66560890      4.07880991
    C      1.94570461     -2.69870042     -2.94236104      4.20329135
    C      1.38399930     -2.13115692     -1.79267292      3.62154958
    F      0.54071112     -2.88116453     -1.06515956      7.24847067
    C      1.70779446     -0.83328907     -1.34131747      4.03142044
    N      1.22852281     -0.29726651     -0.07783863      5.04418700
    N     -0.01636927     -0.01220130     -0.04902906      5.08222564
    C     -0.44590811      0.49792360      1.23276075      3.83386455
    C     -0.80930854     -0.38694811      2.25511707      4.11578101
    C     -1.28313180      0.08527527      3.49258657      3.91909668
    C     -1.60211031     -0.82539484      4.54926656      3.83100050
    N     -1.86693994     -1.56255057      5.40101284      5.27039164
    C     -1.42458223      1.46422557      3.68772280      4.09091151
    C     -1.09726308      2.36012117      2.66172094      4.06340348
    C     -1.24497453      3.81449096      2.89146945      3.32384657
    O     -1.61988521      4.32331318      3.96273698      6.57612057
    O     -0.94215438      4.60141899      1.84021668      6.49228393
    C     -0.62581295      1.87295451      1.42680154      4.12133749
    H      1.88391368      2.13998188     -2.65480299      0.94660487
    H      1.71155645      2.28120255     -0.87552993      0.95492647
    H      3.09241502      3.07670429     -1.72157986      0.93732382
    H      4.83273435      1.70094150     -4.75896735      0.62466760
    H      3.34248411     -2.35927288     -4.56483441      0.88097652
    H      1.66894967     -3.69358162     -3.26024111      0.87841955
    H     -0.67401353     -1.46790897      2.10285524      0.89643831
    H     -1.78994453      1.86784661      4.64014804      0.88114100
    H     -1.08327263      5.54250458      2.11795242      0.62131619
    H     -0.32754693      2.58027819      0.64078897      0.89810034
   35
Geometry Step: 9
    C      2.42894910      2.19007637     -1.71168556      3.93665194
    O      3.24667755      1.03607305     -1.55563586      6.33916674
    C      2.72379218     -0.14309338     -2.04388307      3.71676871
    C      3.27905679     -0.68535549     -3.22464146      4.15899362
    C      4.30751307      0.02761744     -4.02000263      3.30874496
    O      5.27152701     -0.51689289     -4.55701872      6.57291717
    O      4.08827425      1.35327703     -4.19701783      6.49576666
    C      2.88412959     -1.95466963     -3.66773715      4.07965635
    C      1.95160023     -2.68993213     -2.94561245      4.20254066
    C      1.38995471     -2.13324012     -1.79210407      3.62073907
    F      0.54914827     -2.88366147     -1.06926238      7.24694470
    C      1.70883148     -0.83418293     -1.34826844      4.03471963
    N      1.22416238     -0.30086058     -0.07865397      5.04299926
    N     -0.01368969     -0.01176421     -0.04929577      5.08292504
    C     -0.45965943      0.50162656      1.23577885      3.83717025
    C     -0.80925512     -0.38966429      2.25732019      4.11693585
    C     -1.27926555      0.09338469      3.48869842      3.91831420
    C     -1.60067702     -0.82332294      4.54810558      3.83348439
    N     -1.86584128     -1.55815169      5.39599587      5.26969318
    C     -1.42575417      1.46997718      3.68972038      4.09379451
    C     -1.09529103      2.35996852      2.66085651      4.06350483
    C     -1.24631132      3.81227619      2.90055994      3.32500210
    O     -1.61857017      4.32362277      3.95741151      6.56539170
    O     -0.94259513      4.59913568      1.83809356      6.50264317
    C     -0.62548413      1.87875047      1.42597627      4.11988494
    H      1.88370389      2.13917594     -2.65977211      0.94931045
    H      1.71850747      2.27851190     -0.87585798      0.95721804
    H      3.08535610      3.06773833     -1.72395978      0.93560988
    H      4.82290765      1.68231736     -4.74817574      0.62375067
    H      3.34090153     -2.35943023     -4.56246919      0.88126794
    H      1.67222593     -3.68285653     -3.25711381      0.87959245
    H     -0.67412332     -1.45787345      2.10235591      0.89293397
    H     -1.78921303      1.86479674      4.63706529      0.87979819
    H     -1.08370677      5.52210568      2.12341401      0.62050952
    H     -0.32495559      2.57611631      0.64209498      0.89465529
   35
Geometry Step: 10
    C      2.42689375      2.19434140     -1.71008567      3.93627248
    O      3.24569818      1.03612298     -1.56496738      6.34022533
    C      2.72729050     -0.14932250     -2.04214488      3.71727167
    C      3.28219929     -0.69084665     -3.22185914      4.15921402
    C      4.30989399      0.02771229     -4.02407080      3.30865150
    O      5.27124063     -0.51505136     -4.55935364      6.56782193
    O      4.10070246      1.36026930     -4.19988674      6.50046525
    C      2.88477756     -1.96123022     -3.66457607      4.08044304
    C      1.94756318     -2.69501018     -2.94291332      4.20196773
    C      1.38341497     -2.13212202     -1.79042226      3.62258338
    F      0.54146777     -2.88041065     -1.06652445      7.24678301
    C      1.71099972     -0.83584026     -1.34157000      4.03126418
    N      1.22671598     -0.29986930     -0.08514094      5.04287431
    N     -0.01232662     -0.01166269     -0.04270007      5.08207315
    C     -0.45451789      0.49936637      1.23386132      3.83438579
    C     -0.80727170     -0.39361124      2.25591269      4.11905799
    C     -1.28095730      0.08893793      3.48782947      3.91801590
    C     -1.60338391     -0.82865563      4.55196304      3.83399066
    N     -1.86635274     -1.56101734      5.39941472      5.26923754
    C     -1.42622436      1.46817317      3.69126252      4.09546112
    C     -1.09626074      2.35875557      2.65923312      4.06400626
    C     -1.24784343      3.81523188      2.90037267      3.32478768
    O     -1.61802106      4.32107977      3.95702837      6.56129636
    O     -0.94295604      4.61186011      1.84047424      6.50686021
    C     -0.62335428      1.87733039      1.42496149      4.12180227
    H      1.88175919      2.14115102     -2.65758505      0.94902220
    H      1.71242955      2.28094863     -0.87541835      0.95708599
    H      3.08834232      3.07209195     -1.72140395      0.93517652
    H      4.82442533      1.69523689     -4.75196121      0.62324983
    H      3.34208891     -2.36044828     -4.56491600      0.88187704
    H      1.66858574     -3.69318859     -3.25954843      0.87992257
    H     -0.67470303     -1.46292593      2.10314660      0.89286583
    H     -1.78885335      1.86606302      4.63743611      0.87944684
    H     -1.08194329      5.53079624      2.11597981      0.61996137
    H     -0.32869285      2.57734018      0.64345145      0.89457907
   35
Geometry Step: 11
    C      2.42356811      2.20124236     -1.70749699      3.93575771
    O      3.24411352      1.03620376     -1.58006608      6.34198821
    C      2.73295090     -0.15940143     -2.03933242      3.71809813
    C      3.28728397     -0.69973153     -3.21735726      4.15939034
    C      4.31374642      0.02786575     -4.03065323      3.30861007
    O      5.27077726     -0.51207169     -4.56313162      6.55941840
    O      4.12081174      1.37158303     -4.20452873      6.50831235
    C      2.88582599     -1.97184548     -3.65946135      4.08175696
    C      1.94103110     -2.70322664     -2.93854603      4.20102466
    C      1.37283343     -2.13031290     -1.78770104      3.62567780
    F      0.52904045     -2.87515071     -1.06209438      7.24646635
    C      1.71450802     -0.83852189     -1.33073168      4.02566940
    N      1.23084779     -0.29826536     -0.09563706      5.04254009
    N     -0.01012113     -0.01149843     -0.03202801      5.08051207
    C     -0.44619871      0.49570931      1.23075870      3.82990979
    C     -0.80406247     -0.39999755      2.25363531      4.12262931
    C     -1.28369461      0.08174291      3.48642348      3.91746656
    C     -1.60776376     -0.83728410      4.55820454      3.83481377
    N     -1.86718029     -1.56565406      5.40494654      5.26853522
    C     -1.42698514      1.46525421      3.69375774      4.09831247
    C     -1.09782977      2.35679298      2.65660643      4.06472556
    C     -1.25032243      3.82001428      2.90006965      3.32447190
    O     -1.61713258      4.31696512      3.95640844      6.55461192
    O     -0.94354001      4.63244867      1.84432626      6.51388593
    C     -0.61990812      1.87503266      1.42331954      4.12505918
    H      1.87861260      2.14434676     -2.65404632      0.94847416
    H      1.70259529      2.28489134     -0.87470703      0.95681498
    H      3.09317413      3.07913627     -1.71726854      0.93441442
    H      4.82688098      1.71614114     -4.75808622      0.62230943
    H      3.34401013     -2.36209551     -4.56887503      0.88285744
    H      1.66269578     -3.70990623     -3.26348773      0.88041633
    H     -0.67564102     -1.47110101      2.10442598      0.89275472
    H     -1.78827137      1.86811189      4.63803613      0.87888776
    H     -1.07908991      5.54485787      2.10395102      0.61898164
    H     -0.33473986      2.57932045      0.64564627      0.89444500
   35
Geometry Step: 12
    C      2.42595718      2.19628485     -1.70935664      3.93610665
    O      3.24525191      1.03614573     -1.56921948      6.34071642
    C      2.72888459     -0.15216093     -2.04135283      3.71749845
    C      3.28363124     -0.69334882     -3.22059132      4.15928828