   36
Geometry Step: 0
    C      3.43565248     -0.81928117     -3.79280941      4.24978646
    C      2.89616335     -0.04110496     -2.62449193      3.95318083
    C      2.17633505      1.13916884     -2.84387951      4.09440096
    C      1.66784399      1.90321719     -1.77912753      4.10147913
    C      0.92698340      3.16949867     -2.12336956      3.33099625
    O      0.69135034      3.49491295     -3.27678556      6.51800469
    O      0.52243196      3.95727081     -1.08343599      6.48442466
    C      1.86474324      1.44594026     -0.46629612      4.14670665
    C      2.56478445      0.25044589     -0.23110311      3.86694234
    N      2.89953510     -0.12896892      1.11881873      5.07454818
    N      2.01506867     -0.20560445      2.01525681      5.07871174
    C      0.61171937     -0.14181993      1.70007750      3.83886289
    C      0.04391403     -1.05470604      0.79073180      4.21903222
    C     -1.34669726     -1.07447033      0.63833298      3.58475874
    F     -1.88526626     -1.94294692     -0.22530358      7.25277237
    C     -2.18725670     -0.21583789      1.35259510      4.18944932
    C     -1.61186238      0.68153339      2.27035677      4.05894393
    C     -2.50840554      1.58787952      3.04490025      3.32028401
    O     -3.73208745      1.59657931      2.95894579      6.55566304
    O     -1.87738825      2.45054471      3.89344510      6.50870181
    C     -0.22058795      0.69981691      2.46113722      4.16198663
    C      3.11992389     -0.48369351     -1.30334056      3.99844321
    C      3.88491148     -1.74886968     -1.03149619      4.24744810
    H      4.52500637     -0.87235182     -3.76067280      0.90765235
    H      3.06758896     -1.84577661     -3.78629987      0.90840763
    H      3.14729276     -0.35973493     -4.73432737      0.91060315
    H      2.00422112      1.49537641     -3.85655480      0.88689792
    H      0.78326079      3.60906236     -0.22122868      0.65040559
    H      1.49398732      2.00910461      0.38947040      0.92488147
    H      0.67102763     -1.73720544      0.22528010      0.88261928
    H     -3.26469780     -0.23565319      1.21950065      0.86396720
    H     -2.54439068      2.98838031      4.34974135      0.62024662
    H      0.21460967      1.39081408      3.17701022      0.88653691
    H      4.80725237     -1.78386108     -1.61094675      0.90843188
    H      4.13345338     -1.83183100      0.02433416      0.90709998
    H      3.30174388     -2.62978216     -1.30849428      0.90672185
   36
Geometry Step: 1
    C      3.43556182     -0.81916023     -3.79265708      4.24970283
    C      2.89626967     -0.04098242     -2.62449492      3.95307805
    C      2.17636855      1.13906710     -2.84363664      4.09435543
    C      1.66790218      1.90324818     -1.77892667      4.10156584
    C      0.92706046      3.16961802     -2.12350399      3.33095938
    O      0.69151918      3.49485461     -3.27669695      6.51785433
    O      0.52245876      3.95737316     -1.08364063      6.48443707
    C      1.86476174      1.44598711     -0.46637387      4.14652021
    C      2.56470258      0.25056355     -0.23128347      3.86705849
    N      2.89965543     -0.12882903      1.11883335      5.07469414
    N      2.01488695     -0.20572078      2.01529924      5.07859355
    C      0.61199856     -0.14172325      1.70009669      3.83878647
    C      0.04372564     -1.05483477      0.79067345      4.21906444
    C     -1.34660905     -1.07466533      0.63824927      3.58477854
    F     -1.88527887     -1.94309025     -0.22537718      7.25273833
    C     -2.18738671     -0.21571739      1.35276203      4.18951682
    C     -1.61197454      0.68168336      2.27057438      4.05883476
    C     -2.50832403      1.58767419      3.04483900      3.32021669
    O     -3.73205744      1.59657098      2.95905067      6.55571497
    O     -1.87728899      2.45054209      3.89339127      6.50882205
    C     -0.22067108      0.69971069      2.46118915      4.16200645
    C      3.11988285     -0.48364815     -1.30361712      3.99838737
    C      3.88486421     -1.74866437     -1.03138499      4.24739137
    H      4.52497963     -0.87246513     -3.76063290      0.90769192
    H      3.06749876     -1.84578190     -3.78626067      0.90845193
    H      3.14735860     -0.35982510     -4.73443149      0.91064057
    H      2.00412566      1.49543876     -3.85667418      0.88700380
    H      0.78340158      3.60896464     -0.22134554      0.65043525
    H      1.49399571      2.00921440      0.38952340      0.92493971
    H      0.67105165     -1.73738301      0.22525953      0.88265918
    H     -3.26466996     -0.23576892      1.21950528      0.86394596
    H     -2.54448902      2.98845446      4.34967503      0.62025753
    H      0.21460762      1.39081841      3.17712813      0.88658102
    H      4.80737557     -1.78388000     -1.61092819      0.90848268
    H      4.13324449     -1.83185790      0.02428843      0.90704784
    H      3.30165663     -2.62973963     -1.30850045      0.90678500
   36
Geometry Step: 2
    C      3.43562147     -0.81923981     -3.79275731      4.24975881
    C      2.89619972     -0.04106305     -2.62449295      3.95314642
    C      2.17634651      1.13913404     -2.84379644      4.09439247
    C      1.66786390      1.90322779     -1.77905884      4.10151092
    C      0.92700976      3.16953949     -2.12341554      3.33098286
    O      0.69140809      3.49489300     -3.27675526      6.51795309
    O      0.52244113      3.95730582     -1.08350598      6.48443010
    C      1.86474957      1.44595628     -0.46632271      4.14663767
    C      2.56475645      0.25048613     -0.23116479      3.86697507
    N      2.89957625     -0.12892107      1.11882373      5.07459249
    N      2.01500652     -0.20564424      2.01527133      5.07867664
    C      0.61181486     -0.14178686      1.70008406      3.83883428
    C      0.04384959     -1.05475007      0.79071184      4.21904274
    C     -1.34666709     -1.07453703      0.63830435      3.58476472
    F     -1.88527057     -1.94299594     -0.22532875      7.25275981
    C     -2.18730117     -0.21579667      1.35265220      4.18947294
    C     -1.61190074      0.68158468      2.27043120      4.05890569
    C     -2.50837766      1.58780929      3.04487930      3.32026095
    O     -3.73207719      1.59657646      2.95898166      6.55567986
    O     -1.87735430      2.45054381      3.89342669      6.50874482
    C     -0.22061638      0.69978058      2.46115498      4.16199773
    C      3.11990986     -0.48367800     -1.30343515      3.99841797
    C      3.88489531     -1.74879946     -1.03145816      4.24742913
    H      4.52499723     -0.87239057     -3.76065915      0.90766594
    H      3.06755811     -1.84577842     -3.78628646      0.90842297
    H      3.14731528     -0.35976577     -4.73436298      0.91061702
    H      2.00418847      1.49539773     -3.85659563      0.88693569
    H      0.78330895      3.60902894     -0.22126865      0.65041594
    H      1.49399019      2.00914216      0.38948853      0.92490271
    H      0.67103584     -1.73726617      0.22527306      0.88263260
    H     -3.26468828     -0.23569277      1.21950224      0.86396031
    H     -2.54442431      2.98840567      4.34971867      0.62025024
    H      0.21460897      1.39081556      3.17705055      0.88655305
    H      4.80729450     -1.78386755     -1.61094040      0.90845014
    H      4.13338193     -1.83184020      0.02431852      0.90708174
    H      3.30171404     -2.62976761     -1.30849639      0.90674447
   36
Geometry Step: 3
    C      3.43559265     -0.81920748     -3.79272381      4.24972969
    C      2.89625403     -0.04101873     -2.62452056      3.95313439
    C      2.17632609      1.13915921     -2.84375357      4.09438009
    C      1.66788565      1.90326205     -1.77903162      4.10148619
    C      0.92707592      3.16955859     -2.12339145      3.33101400
    O      0.69148080      3.49488738     -3.27682560      6.51800579
    O      0.52246591      3.95735317     -1.08354583      6.48437330
    C      1.86474485      1.44599922     -0.46628647      4.14665677
    C      2.56474917      0.25050872     -0.23123732      3.86701606
    N      2.89956333     -0.12886109      1.11887047      5.07459917
    N      2.01502018     -0.20568401      2.01521901      5.07863200
    C      0.61182690     -0.14177597      1.70006262      3.83884905
    C      0.04386565     -1.05478964      0.79071251      4.21904260
    C     -1.34672922     -1.07456472      0.63831839      3.58478812
    F     -1.88527667     -1.94306811     -0.22536213      7.25276178
    C     -2.18728105     -0.21579385      1.35269437      4.18943231
    C     -1.61194464      0.68157975      2.27047128      4.05889999
    C     -2.50837083      1.58776591      3.04490106      3.32025026
    O     -3.73204903      1.59656465      2.95903404      6.55567192
    O     -1.87733679      2.45055761      3.89341099      6.50876868
    C     -0.22059917      0.69974063      2.46119948      4.16200401
    C      3.11988951     -0.48364551     -1.30347099      3.99840175
    C      3.88487746     -1.74873387     -1.03146783      4.24741870
    H      4.52497259     -0.87244852     -3.76063527      0.90767446
    H      3.06751219     -1.84576248     -3.78625978      0.90843162
    H      3.14735137     -0.35981424     -4.73440268      0.91062118
    H      2.00414838      1.49540913     -3.85659398      0.88693713
    H      0.78336936      3.60899791     -0.22137202      0.65042491
    H      1.49400343      2.00918888      0.38950024      0.92488918
    H      0.67103218     -1.73734979      0.22527149      0.88262786
    H     -3.26469704     -0.23575035      1.21950599      0.86398185
    H     -2.54444730      2.98842083      4.34966203      0.62025023
    H      0.21459757      1.39080343      3.17709954      0.88654908
    H      4.80733376     -1.78387410     -1.61091036      0.90845348
    H      4.13327515     -1.83184692      0.02432215      0.90708616
    H      3.30168244     -2.62972154     -1.30849303      0.90675625
   36
Geometry Step: 4
    C      3.43554602     -0.81915518     -3.79266960      4.24968363
    C      2.89634192     -0.04094702     -2.62456524      3.95311877
    C      2.17629305      1.13919994     -2.84368421      4.09437809
    C      1.66792085      1.90331749     -1.77898758      4.10145980
    C      0.92718297      3.16958949     -2.12335246      3.33105973
    O      0.69159846      3.49487829     -3.27693942      6.51808765
    O      0.52250601      3.95742979     -1.08361032      6.48428661
    C      1.86473722      1.44606869     -0.46622783      4.14667833
    C      2.56473739      0.25054527     -0.23135467      3.86706296
    N      2.89954241     -0.12876404      1.11894608      5.07460718
    N      2.01504228     -0.20574835      2.01513435      5.07856275
    C      0.61184637     -0.14175834      1.70002794      3.83885874
    C      0.04389163     -1.05485366      0.79071358      4.21904653
    C     -1.34682974     -1.07460952      0.63834112      3.58483275
    F     -1.88528653     -1.94318488     -0.22541614      7.25276526
    C     -2.18724850     -0.21578928      1.35276261      4.18938011
    C     -1.61201567      0.68157178      2.27053615      4.05888835
    C     -2.50835977      1.58769572      3.04493628      3.32023274
    O     -3.73200346      1.59654553      2.95911879      6.55566225
    O     -1.87730847      2.45057994      3.89338559      6.50880351
    C     -0.22057133      0.69967600      2.46127147      4.16200917
    C      3.11985659     -0.48359295     -1.30352899      3.99836539
    C      3.88484857     -1.74862775     -1.03148349      4.24740101
    H      4.52493272     -0.87254229     -3.76059662      0.90768735
    H      3.06743790     -1.84573668     -3.78621660      0.90844476
    H      3.14740977     -0.35989267     -4.73446692      0.91063078
    H      2.00408350      1.49542756     -3.85659130      0.88694214
    H      0.78346712      3.60894769     -0.22153927      0.65043892
    H      1.49402486      2.00926447      0.38951919      0.92486778
    H      0.67102626     -1.73748507      0.22526895      0.88262070
    H     -3.26471123     -0.23584351      1.21951206      0.86401410
    H     -2.54448448      2.98844536      4.34957038      0.62025047
    H      0.21457912      1.39078381      3.17717880      0.88654315
    H      4.80739727     -1.78388469     -1.61086175      0.90846015
    H      4.13310238     -1.83185779      0.02432802      0.90709320
    H      3.30163130     -2.62964699     -1.30848759      0.90677517
   36
Geometry Step: 5
    C      3.43557183     -0.81918413     -3.79269961      4.24970919
    C      2.89629327     -0.04098671     -2.62454051      3.95312638
    C      2.17631134      1.13917740     -2.84372260      4.09438113
    C      1.66790137      1.90328680     -1.77901196      4.10147858
    C      0.92712371      3.16957239     -2.12337404      3.33103144
    O      0.69153333      3.49488332     -3.27687642      6.51804221
    O      0.52248381      3.95738738     -1.08357462      6.48433634
    C      1.86474145      1.44603024     -0.46626029      4.14666480
    C      2.56474391      0.25052504     -0.23128971      3.86703421
    N      2.89955399     -0.12881776      1.11890423      5.07460500
    N      2.01503004     -0.20571273      2.01518121      5.07860110
    C      0.61183559     -0.14176810      1.70004714      3.83885021
    C      0.04387725     -1.05481822      0.79071299      4.21904618
    C     -1.34677409     -1.07458472      0.63832854      3.58480865
    F     -1.88528107     -1.94312024     -0.22538624      7.25276361
    C     -2.18726652     -0.21579181      1.35272484      4.18941226
    C     -1.61197635      0.68157619      2.27050024      4.05889427
    C     -2.50836589      1.58773458      3.04491678      3.32024285
    O     -3.73202868      1.59655611      2.95907188      6.55566787
    O     -1.87732415      2.45056758      3.89339965      6.50878263
    C     -0.22058674      0.69971178      2.46123162      4.16200508
    C      3.11987481     -0.48362204     -1.30349689      3.99838478
    C      3.88486456     -1.74868649     -1.03147482      4.24741023
    H      4.52495479     -0.87249038     -3.76061801      0.90767996
    H      3.06747902     -1.84575096     -3.78624050      0.90843721
    H      3.14737744     -0.35984926     -4.73443136      0.91062628
    H      2.00411941      1.49541736     -3.85659278      0.88694013
    H      0.78341301      3.60897549     -0.22144669      0.65043087
    H      1.49401300      2.00922263      0.38950870      0.92487988
    H      0.67102954     -1.73741019      0.22527036      0.88262525
    H     -3.26470338     -0.23579194      1.21950870      0.86399440
    H     -2.54446390      2.98843178      4.34962111      0.62025032
    H      0.21458933      1.39079467      3.17713493      0.88654658
    H      4.80736211     -1.78387883     -1.61088866      0.90845644
    H      4.13319802     -1.83185177      0.02432477      0.90708974
    H      3.30165960     -2.62968826     -1.30849060      0.90676397
   36
Geometry Step: 6
    C      3.43554669     -0.81916971     -3.79269986      4.24971293
    C      2.89635011     -0.04087218     -2.62458005      3.95312488
    C      2.17627844      1.13924433     -2.84372921      4.09439509
    C      1.66793004      1.90337391     -1.77897128      4.10150713
    C      0.92722148      3.16964279     -2.12344152      3.33102466
    O      0.69169982      3.49484830     -3.27691884      6.51801311
    O      0.52254514      3.95746690     -1.08365427      6.48435627
    C      1.86474587      1.44610362     -0.46619926      4.14666846
    C      2.56472250      0.25058433     -0.23132865      3.86701920
    N      2.89960027     -0.12870929      1.11887055      5.07461252
    N      2.01501298     -0.20577498      2.01515474      5.07863175
    C      0.61178749     -0.14179105      1.69998267      3.83885709
    C      0.04386649     -1.05487615      0.79072397      4.21900561
    C     -1.34681569     -1.07464214      0.63835988      3.58483006
    F     -1.88529254     -1.94322621     -0.22541432      7.25278510
    C     -2.18727805     -0.21584059      1.35275445      4.18940116
    C     -1.61193782      0.68151796      2.27055807      4.05889970
    C     -2.50834227      1.58770466      3.04500213      3.32026051
    O     -3.73202003      1.59652433      2.95916942      6.55567885
    O     -1.87730845      2.45060243      3.89337730      6.50875468
    C     -0.22058912      0.69965169      2.46131507      4.16199024
    C      3.11986173     -0.48356528     -1.30352935      3.99838493
    C      3.88484014     -1.74861326     -1.03152376      4.24740344
    H      4.52489902     -0.87260245     -3.76056868      0.90768103
    H      3.06738852     -1.84569874     -3.78617945      0.90843653
    H      3.14744773     -0.35994070     -4.73449238      0.91062132
    H      2.00404560      1.49542916     -3.85653901      0.88692350
    H      0.78352739      3.60892572     -0.22163846      0.65043352
    H      1.49403943      2.00931472      0.38954196      0.92486504
    H      0.67101129     -1.73756123      0.22527748      0.88262885
    H     -3.26470707     -0.23589761      1.21952437      0.86399224
    H     -2.54448966      2.98844956      4.34949812      0.62024586
    H      0.21456510      1.39075803      3.17722218      0.88653901
    H      4.80741099     -1.78388376     -1.61081083      0.90844582
    H      4.13299205     -1.83185361      0.02434399      0.90710438
    H      3.30160919     -2.62957732     -1.30848580      0.90676552
   36
Geometry Step: 7
    C      3.43550600     -0.81914637     -3.79270028      4.24971927
    C      2.89644207     -0.04068685     -2.62464402      3.95311729
    C      2.17622521      1.13935264     -2.84373989      4.09441642
    C      1.66797643      1.90351485     -1.77890546      4.10155612
    C      0.92737967      3.16975670     -2.12355071      3.33101818
    O      0.69196921      3.49479164     -3.27698748      6.51796623
    O      0.52264436      3.95759556     -1.08378314      6.48438650
    C      1.86475303      1.44622236     -0.46610051      4.14667767
    C      2.56468787      0.25068026     -0.23139166      3.86699681
    N      2.89967515     -0.12853378      1.11881605      5.07463110
    N      2.01498536     -0.20587570      2.01511190      5.07866706
    C      0.61170966     -0.14182820      1.69987836      3.83885637
    C      0.04384908     -1.05496988      0.79074174      4.21895371
    C     -1.34688300     -1.07473505      0.63841059      3.58487411
    F     -1.88531110     -1.94339767     -0.22545975      7.25281735
    C     -2.18729671     -0.21591951      1.35280236      4.18939900
    C     -1.61187549      0.68142375      2.27065163      4.05889879
    C     -2.50830405      1.58765627      3.04514021      3.32027964
    O     -3.73200602      1.59647290      2.95932725      6.55570470
    O     -1.87728306      2.45065882      3.89334113      6.50871005
    C     -0.22059296      0.69955447      2.46145009      4.16195182
    C      3.11984057     -0.48347345     -1.30358187      3.99838238
    C      3.88480062     -1.74849478     -1.03160295      4.24739220
    H      4.52480879     -0.87278378     -3.76048887      0.90768229
    H      3.06724209     -1.84561425     -3.78608065      0.90843522
    H      3.14756147     -0.36008866     -4.73459110      0.91061471
    H      2.00392616      1.49544826     -3.85645200      0.88689896
    H      0.78371246      3.60884519     -0.22194875      0.65043738
    H      1.49408219      2.00946374      0.38959577      0.92484176
    H      0.67098178     -1.73780564      0.22528900      0.88263483
    H     -3.26471305     -0.23606859      1.21954973      0.86398972
    H     -2.54453133      2.98847833      4.34929911      0.62024056
    H      0.21452588      1.39069875      3.17736335      0.88652708
    H      4.80749007     -1.78389174     -1.61068490      0.90843052
    H      4.13265878     -1.83185660      0.02437510      0.90712648
    H      3.30152761     -2.62939782     -1.30847803      0.90676771
   36
Geometry Step: 8
    C      3.43544017     -0.81910860     -3.79270094      4.24972923
    C      2.89659086     -0.04038699     -2.62474754      3.95310937
    C      2.17613907      1.13952787     -2.84375719      4.09445330
    C      1.66805150      1.90374289     -1.77879895      4.10163739
    C      0.92763562      3.16994102     -2.12372737      3.33100414
    O      0.69240509      3.49469995     -3.27709855      6.51788497
    O      0.52280490      3.95780374     -1.08399166      6.48443975
    C      1.86476462      1.44641448     -0.46594073      4.14668716
    C      2.56463182      0.25083548     -0.23149361      3.86695641
    N      2.89979631     -0.12824980      1.11872787      5.07465638
    N      2.01494067     -0.20603866      2.01504259      5.07874282
    C      0.61158372     -0.14188829      1.69970959      3.83886501
    C      0.04382090     -1.05512154      0.79077050      4.21885681
    C     -1.34699190     -1.07488539      0.63849265      3.58493638
    F     -1.88534113     -1.94367509     -0.22553326      7.25287223
    C     -2.18732689     -0.21604721      1.35287989      4.18938202
    C     -1.61177463      0.68127130      2.27080301      4.05890690
    C     -2.50824221      1.58757796      3.04536365      3.32031944
    O     -3.73198337      1.59638970      2.95958262      6.55574078
    O     -1.87724198      2.45075005      3.89328261      6.50863551
    C     -0.22059918      0.69939717      2.46166856      4.16189971
    C      3.11980633     -0.48332485     -1.30366685      3.99837786
    C      3.88473669     -1.74830306     -1.03173108      4.24737381
    H      4.52466278     -0.87307717     -3.76035973      0.90768433
    H      3.06700515     -1.84547753     -3.78592081      0.90843296
    H      3.14774551     -0.36032806     -4.73475084      0.91060356
    H      2.00373292      1.49547916     -3.85631122      0.88685770
    H      0.78401191      3.60871489     -0.22245081      0.65044407
    H      1.49415138      2.00970484      0.38968284      0.92480451
    H      0.67093401     -1.73820108      0.22530764      0.88264447
    H     -3.26472272     -0.23634524      1.21959076      0.86398372
    H     -2.54459877      2.98852489      4.34897711      0.62023044
    H      0.21446243      1.39060283      3.17759177      0.88650770
    H      4.80761803     -1.78390465     -1.61048113      0.90840438
    H      4.13211954     -1.83186143      0.02442542      0.90716402
    H      3.30139561     -2.62910738     -1.30846546      0.90677077
   36
Geometry Step: 9
    C      3.43550380     -0.81914510     -3.79270030      4.24971948
    C      2.89644705     -0.04067681     -2.62464749      3.95311934
    C      2.17622232      1.13935850     -2.84374047      4.09441927
    C      1.66797895      1.90352248     -1.77890189      4.10155923
    C      0.92738824      3.16976287     -2.12355662      3.33101681
    O      0.69198380      3.49478857     -3.27699120      6.51796222
    O      0.52264973      3.95760253     -1.08379012      6.48438907
    C      1.86475342      1.44622879     -0.46609516      4.14667541
    C      2.56468599      0.25068545     -0.23139507      3.86699406
    N      2.89967920     -0.12852427      1.11881310      5.07463107
    N      2.01498386     -0.20588115      2.01510958      5.07867345
    C      0.61170544     -0.14183021      1.69987271      3.83885817
    C      0.04384813     -1.05497496      0.79074271      4.21894690
    C     -1.34688664     -1.07474009      0.63841334      3.58487538
    F     -1.88531210     -1.94340695     -0.22546222      7.25282034
    C     -2.18729772     -0.21592379      1.35280496      4.18939508
    C     -1.61187211      0.68141864      2.27065669      4.05890209
    C     -2.50830198      1.58765364      3.04514770      3.32028337
    O     -3.73200527      1.59647012      2.95933580      6.55570465
    O     -1.87728169      2.45066187      3.89333917      6.50870664
    C     -0.22059317      0.69954921      2.46145740      4.16195151
    C      3.11983942     -0.48346847     -1.30358472      3.99838253
    C      3.88479848     -1.74848836     -1.03160724      4.24739158
    H      4.52480390     -0.87279360     -3.76048455      0.90768221
    H      3.06723415     -1.84560967     -3.78607530      0.90843506
    H      3.14756764     -0.36009667     -4.73459645      0.91061418
    H      2.00391969      1.49544929     -3.85644729      0.88689724
    H      0.78372248      3.60884082     -0.22196556      0.65043770
    H      1.49408451      2.00947181      0.38959869      0.92484049
    H      0.67098018     -1.73781887      0.22528962      0.88263508
    H     -3.26471337     -0.23607785      1.21955111      0.86398912
    H     -2.54453359      2.98847989      4.34928833      0.62023988
    H      0.21452376      1.39069554      3.17737100      0.88652626
    H      4.80749435     -1.78389217     -1.61067807      0.90842932
    H      4.13264073     -1.83185676      0.02437678      0.90712805
    H      3.30152319     -2.62938809     -1.30847761      0.90676776
   36
Geometry Step: 10
    C      3.43548161     -0.81916889     -3.79277532      4.24979544
    C      2.89646635     -0.04035465     -2.62468850      3.95311745
    C      2.17619021      1.13954093     -2.84369068      4.09440348
    C      1.66808299      1.90370716     -1.77883896      4.10152982
    C      0.92765035      3.16993361     -2.12363115      3.33106885
    O      0.69242756      3.49477389     -3.27729168      6.51809057
    O      0.52283058      3.95784635     -1.08411134      6.48420447
    C      1.86477717      1.44646660     -0.46611276      4.14667443
    C      2.56467402      0.25086395     -0.23127877      3.86701437
    N      2.89962967     -0.12831214      1.11876844      5.07450763
    N      2.01506986     -0.20596143      2.01489169      5.07866108
    C      0.61163859     -0.14193831      1.69981159      3.83893271
    C      0.04368945     -1.05521064      0.79067897      4.21897126
    C     -1.34686401     -1.07500199      0.63841166      3.58480662
    F     -1.88530867     -1.94356105     -0.22538092      7.25279247
    C     -2.18735731     -0.21613632      1.35283820      4.18948744
    C     -1.61178519      0.68120085      2.27081171      4.05891556
    C     -2.50825260      1.58757563      3.04535682      3.32031615
    O     -3.73198183      1.59635308      2.95961658      6.55572665
    O     -1.87720410      2.45074584      3.89327394      6.50864035
    C     -0.22058593      0.69936552      2.46160090      4.16191259
    C      3.11984957     -0.48322816     -1.30369492      3.99841959
    C      3.88474813     -1.74837248     -1.03163088      4.24744144
    H      4.52468047     -0.87311317     -3.76034521      0.90766692
    H      3.06695108     -1.84545441     -3.78587838      0.90841829
    H      3.14775422     -0.36032064     -4.73476694      0.91058513
    H      2.00369041      1.49553009     -3.85634706      0.88687287
    H      0.78405949      3.60870815     -0.22237800      0.65048063
    H      1.49416008      2.00974323      0.38974610      0.92488508
    H      0.67085787     -1.73815378      0.22538264      0.88264069
    H     -3.26471783     -0.23635167      1.21962194      0.86396627
    H     -2.54462491      2.98857776      4.34897270      0.62023997
    H      0.21446231      1.39054742      3.17759565      0.88653050
    H      4.80759069     -1.78388046     -1.61043809      0.90839947
    H      4.13206594     -1.83182287      0.02439245      0.90712594
    H      3.30136848     -2.62909080     -1.30852103      0.90675781
   36
Geometry Step: 11
    C      3.43548232     -0.81916813     -3.79277294      4.24979307
    C      2.89646574     -0.04036486     -2.62468720      3.95311727
    C      2.17619123      1.13953514     -2.84369226      4.09440477
    C      1.66807969      1.90370131     -1.77884096      4.10153091
    C      0.92764204      3.16992819     -2.12362879      3.33106758
    O      0.69241350      3.49477436     -3.27728215      6.51808287
    O      0.52282485      3.95783863     -1.08410116      6.48421315
    C      1.86477642      1.44645906     -0.46611220      4.14667383
    C      2.56467440      0.25085830     -0.23128246      3.86701363
    N      2.89963124     -0.12831887      1.11876986      5.07451467
    N      2.01506713     -0.20595888      2.01489859      5.07866154
    C      0.61164071     -0.14193488      1.69981352      3.83892874
    C      0.04369448     -1.05520317      0.79068099      4.21896969
    C     -1.34686472     -1.07499369      0.63841172      3.58481014
    F     -1.88530878     -1.94355617     -0.22538349      7.25279418
    C     -2.18735542     -0.21612958      1.35283714      4.18948314
    C     -1.61178794      0.68120775      2.27080679      4.05891433
    C     -2.50825417      1.58757810      3.04535019      3.32031473
    O     -3.73198257      1.59635679      2.95960768      6.55572517
    O     -1.87720656      2.45074318      3.89327601      6.50864379
    C     -0.22058616      0.69937134      2.46159635      4.16191388
    C      3.11984925     -0.48323578     -1.30369143      3.99841707
    C      3.88474973     -1.74837615     -1.03163013      4.24743984
    H      4.52468439     -0.87310305     -3.76034963      0.90766739
    H      3.06696005     -1.84545933     -3.78588463      0.90841875
    H      3.14774831     -0.36031354     -4.73476153      0.91058624
    H      2.00369768      1.49552753     -3.85635024      0.88687367
    H      0.78404881      3.60871235     -0.22236493      0.65047914