|===============================================================================
|
|  DFTB+ development version (commit: 6753566)
|
|  Copyright (C) 2018  DFTB+ developers group
|
|===============================================================================
|
|  When publishing results obtained with DFTB+, please cite the following
|  reference:
|
|  * B. Aradi, B. Hourahine and T. Frauenheim,
|    DFTB+, a Sparse Matrix-Based Implementation of the DFTB Method,
|    J. Phys. Chem. A, 111 5678 (2007).  [doi: 10.1021/jp070186p]
|
|  You should also cite additional publications crediting the parametrization
|  data you use. Please consult the documentation of the SK-files for the
|  references.
|
|===============================================================================


***  Parsing and initializing

Parser version: 6

Interpreting input file 'dftb_in.hsd'
--------------------------------------------------------------------------------
Reading SK-files:
  ../dftb_bin/3ob-3-1/C-C.skf
  ../dftb_bin/3ob-3-1/C-O.skf
  ../dftb_bin/3ob-3-1/C-N.skf
  ../dftb_bin/3ob-3-1/C-F.skf
  ../dftb_bin/3ob-3-1/C-H.skf
  ../dftb_bin/3ob-3-1/O-O.skf
  ../dftb_bin/3ob-3-1/O-N.skf
  ../dftb_bin/3ob-3-1/O-F.skf
  ../dftb_bin/3ob-3-1/O-H.skf
  ../dftb_bin/3ob-3-1/N-N.skf
  ../dftb_bin/3ob-3-1/N-F.skf
  ../dftb_bin/3ob-3-1/N-H.skf
  ../dftb_bin/3ob-3-1/F-F.skf
  ../dftb_bin/3ob-3-1/F-H.skf
  ../dftb_bin/3ob-3-1/H-H.skf
Done.


Processed input in HSD format written to 'dftb_pin.hsd'

Starting initialization...
--------------------------------------------------------------------------------
OpenMP threads:              4
Chosen random seed:               626152272
Mode:                        Conjugate gradient relaxation
Self consistent charges:     Yes
SCC-tolerance:                 0.100000E-04
Max. scc iterations:                    100
Shell resolved Hubbard:      No
Spin polarisation:           Yes
Nr. of up electrons:            61.000000
Nr. of down electrons:          61.000000
Periodic boundaries:         No
Diagonalizer:                Relatively robust
Mixer:                       Broyden mixer
Mixing parameter:                  0.200000
Maximal SCC-cycles:                     100
Nr. of chrg. vec. in memory:              0
Nr. of moved atoms:                      36
Max. nr. of geometry steps:           20000
Force tolerance:               0.100000E-03
Force evaluation method:     Traditional
Electronic temperature:        0.100000E-07
Initial charges:             Set automatically (system chrg:   0.000E+00)
Included shells:             C:  s, p
                             O:  s, p
                             N:  s, p
                             F:  s, p
                             H:  s
Spin coupling constants:     C   1(s)-1(s):  -0.230000E-01
                             C   1(s)-2(p):  -0.230000E-01
                             C   2(p)-1(s):  -0.230000E-01
                             C   2(p)-2(p):  -0.230000E-01
                             O   1(s)-1(s):  -0.280000E-01
                             O   1(s)-2(p):  -0.280000E-01
                             O   2(p)-1(s):  -0.280000E-01
                             O   2(p)-2(p):  -0.280000E-01
                             N   1(s)-1(s):  -0.260000E-01
                             N   1(s)-2(p):  -0.260000E-01
                             N   2(p)-1(s):  -0.260000E-01
                             N   2(p)-2(p):  -0.260000E-01
                             F   1(s)-1(s):  -0.280000E-01
                             F   1(s)-2(p):  -0.280000E-01
                             F   2(p)-1(s):  -0.280000E-01
                             F   2(p)-2(p):  -0.280000E-01
                             H   1(s)-1(s):  -0.720000E-01
Full 3rd order correction    Yes
Damped SCC                   Yes
Damped species(s):           H                                                 
Extra options:
                             Mulliken analysis
Force type                   original

Geometry converged

--------------------------------------------------------------------------------
DFTB+ running times                          cpu [s]             wall clock [s]
--------------------------------------------------------------------------------
Pre-SCC initialisation                 +    10.48  (  2.8%)      1.53  (  2.8%)
      Sparse H0 and S build                  5.58  (  1.5%)      0.79  (  1.5%)
SCC                                    +   310.14  ( 82.8%)     44.52  ( 82.8%)
  Diagonalisation                          169.42  ( 45.2%)     24.40  ( 45.4%)
      Sparse to dense                       19.03  (  5.1%)      2.83  (  5.3%)
      Dense to sparse                       10.40  (  2.8%)      1.41  (  2.6%)
  Density matrix creation                    0.84  (  0.2%)      0.12  (  0.2%)
Post-SCC processing                    +    53.89  ( 14.4%)      7.72  ( 14.4%)
  Energy-density matrix creation             5.58  (  1.5%)      0.70  (  1.3%)
  Force calculation                         46.92  ( 12.5%)      6.69  ( 12.4%)
--------------------------------------------------------------------------------
Missing                                +     0.06  (  0.0%)      0.01  (  0.0%)
Total                                  =   374.58  (100.0%)     53.78  (100.0%)
--------------------------------------------------------------------------------
