   31
Geometry Step: 0
    C     -4.45926446     -0.20635107      0.97536337      3.95367371
    O     -3.24348715     -0.16769399      0.24165175      6.29087456
    C     -3.02448968      0.90560692     -0.58343101      3.82299722
    C     -3.93871741      1.92778763     -0.86241101      3.69364458
    F     -5.15377674      1.95766009     -0.29585179      7.26593420
    C     -3.62686179      2.95770331     -1.74969625      4.18467752
    C     -2.39357342      2.97463057     -2.39081089      4.10074761
    C     -1.46985700      1.96503228     -2.12650386      4.15803283
    C     -1.75696584      0.94603436     -1.20186157      3.93495625
    N     -0.78935534     -0.06302810     -0.97997377      5.03965335
    N      0.00000000      0.00000000      0.00000000      5.08861453
    C     -0.05895932      1.08163436      0.90620663      3.95307274
    C     -0.74193387      0.92192635      2.12226069      3.63090716
    F     -1.33722394     -0.24566782      2.40901458      7.25038220
    C     -0.81987607      1.94320507      3.06617924      4.16519594
    C     -0.18635992      3.15451499      2.81996724      4.08849491
    C      0.53670922      3.32450743      1.63878110      4.08857509
    C      0.62310272      2.29042764      0.68424018      4.13266650
    C      1.45516553      2.57141357     -0.52073531      3.31684032
    O      1.85700768      3.69719268     -0.77379077      6.53438484
    O      1.75902364      1.52059819     -1.30759093      6.49751161
    H     -4.43098328     -1.09157041      1.61822698      0.94158118
    H     -5.31903158     -0.31266164      0.30647151      0.93912583
    H     -4.55876814      0.66893137      1.62544449      0.94246428
    H     -4.36148842      3.73375658     -1.94525769      0.89009492
    H     -2.15241820      3.76398417     -3.09903488      0.89656258
    H     -0.51489203      1.97003357     -2.64917885      0.89475369
    H     -1.36964566      1.77954223      3.98846812      0.88978124
    H     -0.23904160      3.96030102      3.54887446      0.90156605
    H      1.04825343      4.27207080      1.46609381      0.87842874
    H      1.34052127      0.66858817     -1.05955713      0.63380385
   31
Geometry Step: 1
    C     -4.45424590     -0.22990703      0.98740197      3.95193263
    O     -3.25181251     -0.16315917      0.24958734      6.26200132
    C     -3.00813449      0.87007483     -0.56825027      3.79279838
    C     -3.93433495      1.94686664     -0.88359793      3.72201580
    F     -5.18014592      1.96262629     -0.28574709      7.28492021
    C     -3.64471981      2.97484664     -1.75201860      4.16749772
    C     -2.38673912      2.97538661     -2.39882271      4.12851268
    C     -1.45192451      1.96009824     -2.13839469      4.12599179
    C     -1.78452839      1.02277210     -1.21936372      3.97510059
    N     -0.77388892     -0.13103401     -0.99288318      5.05629268
    N      0.01464556     -0.06290261     -0.02372089      5.09304403
    C     -0.08165371      1.12117392      0.94781755      3.99326441
    C     -0.74751038      0.91780800      2.14471827      3.60623953
    F     -1.33782500     -0.24887548      2.40005777      7.24867019
    C     -0.83265174      1.93063718      3.08350861      4.18722428
    C     -0.17214623      3.17414720      2.80824662      4.08448888
    C      0.53187842      3.32900271      1.65854296      4.07641676
    C      0.62567301      2.32179500      0.69749625      4.10649326
    C      1.44998865      2.57544421     -0.52130208      3.33783390
    O      1.86665827      3.70711440     -0.78110925      6.51341338
    O      1.77317645      1.49270759     -1.33848501      6.51097507
    H     -4.42485190     -1.09423141      1.61667962      0.93205087
    H     -5.32528334     -0.30779762      0.30549417      0.93950095
    H     -4.56329748      0.67466147      1.62420204      0.94458209
    H     -4.36163218      3.73179978     -1.94324426      0.88132879
    H     -2.15286355      3.76021642     -3.09537010      0.89647367
    H     -0.51583188      1.96889840     -2.64193616      0.88474183
    H     -1.36994104      1.77828687      3.98788075      0.88283913
    H     -0.23979824      3.95728671      3.54657774      0.89949535
    H      1.04842966      4.26117756      1.45724931      0.88426525
    H      1.35812375      0.69318892     -1.05965659      0.62959459
   31
Geometry Step: 2
    C     -4.45748159     -0.21471947      0.97964016      3.95300777
    O     -3.24644479     -0.16608297      0.24447092      6.28054570
    C     -3.01867940      0.89298392     -0.57803795      3.81168249
    C     -3.93716052      1.93456557     -0.86993780      3.70398167
    F     -5.16314456      1.95942436     -0.29226203      7.27271538
    C     -3.63320597      2.96379359     -1.75052128      4.17771920
    C     -2.39114549      2.97489916     -2.39365714      4.11088096
    C     -1.46348637      1.96327944     -2.13072815      4.14564245
    C     -1.76675761      0.97329593     -1.20807932      3.95048091
    N     -0.78386080     -0.08718763     -0.98455992      5.04613191
    N      0.00520293     -0.02234655     -0.00842700      5.09132884
    C     -0.06702164      1.09568104      0.92098917      3.96735565
    C     -0.74391496      0.92046328      2.13023889      3.62152232
    F     -1.33743747     -0.24680736      2.40583262      7.24964339
    C     -0.82441471      1.93874025      3.07233561      4.17337343
    C     -0.18131042      3.16148946      2.81580342      4.08660927
    C      0.53499305      3.32610441      1.64580163      4.08446405
    C      0.62401583      2.30157109      0.68894948      4.12283403
    C      1.45332641      2.57284548     -0.52093666      3.32420488
    O      1.86043611      3.70071744     -0.77639071      6.52683341
    O      1.76405152      1.51068988     -1.31856625      6.50259486
    H     -4.42880507     -1.09251575      1.61767727      0.93817587
    H     -5.32125256     -0.31093366      0.30612431      0.93937063
    H     -4.56037722      0.67096703      1.62500310      0.94335365
    H     -4.36153949      3.73306142     -1.94454241      0.88693447
    H     -2.15257642      3.76264566     -3.09773294      0.89663550
    H     -0.51522591      1.96963029     -2.64660584      0.89123600
    H     -1.36975059      1.77909625      3.98825946      0.88726379
    H     -0.23931040      3.95923017      3.54805853      0.90084773
    H      1.04831604      4.26820091      1.46295174      0.88058356
    H      1.34677466      0.67732774     -1.05959246      0.63204624
   31
Geometry Step: 3
    C     -4.45858026     -0.22001060      0.98358230      3.95278617
    O     -3.24729168     -0.16832972      0.25071836      6.28193317
    C     -3.02580126      0.89481230     -0.57657155      3.80732547
    C     -3.93804055      1.93183227     -0.87058206      3.70635658
    F     -5.17242949      1.96330525     -0.29015961      7.27527175
    C     -3.63097595      2.97060267     -1.75622121      4.17767262
    C     -2.39014528      2.97438734     -2.39625955      4.10248369
    C     -1.46212041      1.97868111     -2.14578527      4.14230490
    C     -1.76267040      0.98115672     -1.20204007      3.96225192
    N     -0.78405103     -0.11446763     -0.99385194      5.04292342
    N      0.00957434     -0.04719439     -0.01153097      5.09506900
    C     -0.07365195      1.10595478      0.92267930      3.97951522
    C     -0.74952300      0.91906531      2.14787857      3.61852250
    F     -1.33883073     -0.25119303      2.40039621      7.24476717
    C     -0.82380507      1.94592996      3.07886184      4.17143482
    C     -0.18655758      3.15741144      2.82225417      4.08197910
    C      0.53952439      3.33681137      1.65019702      4.09025999
    C      0.62172999      2.30968448      0.69505168      4.11913873
    C      1.45648492      2.57718312     -0.52922552      3.32777723
    O      1.86376148      3.69693164     -0.78033696      6.51867156
    O      1.77473121      1.51494036     -1.33288144      6.50273337
    H     -4.42402916     -1.09907341      1.61972846      0.93732662
    H     -5.32321829     -0.30830490      0.30767415      0.93989873
    H     -4.56328721      0.67132357      1.62292035      0.94427496
    H     -4.36571471      3.73624033     -1.94435163      0.88600535
    H     -2.15218261      3.76220035     -3.09735513      0.89902238
    H     -0.51067727      1.96809651     -2.64409566      0.88954765
    H     -1.37256232      1.77791544      3.99279927      0.88961930
    H     -0.23937619      3.95944404      3.54738649      0.90212936
    H      1.04894293      4.26264415      1.45771698      0.87746561
    H      1.35358576      0.68212951     -1.05703813      0.63353165
   31
Geometry Step: 4
    C     -4.45816650     -0.21801795      0.98209768      3.95286248
    O     -3.24697274     -0.16748359      0.24836556      6.28143127
    C     -3.02311915      0.89412372     -0.57712380      3.80895825
    C     -3.93770913      1.93286164     -0.87033943      3.70546389
    F     -5.16893276      1.96184370     -0.29095139      7.27431418
    C     -3.63181578      2.96803835     -1.75407460      4.17770085
    C     -2.39052196      2.97458009     -2.39527948      4.10561129
    C     -1.46263483      1.97288080     -2.14011472      4.14357535
    C     -1.76420966      0.97819632     -1.20431447      3.95780504
    N     -0.78397938     -0.10419391     -0.99035254      5.04410732
    N      0.00792806     -0.03783663     -0.01036201      5.09378353
    C     -0.07115496      1.10208566      0.92204279      3.97492348
    C     -0.74741100      0.91959179      2.14123542      3.61959947
    F     -1.33830602     -0.24954138      2.40244357      7.24659178
    C     -0.82403466      1.94322229      3.07640405      4.17221504
    C     -0.18458148      3.15894723      2.81982480      4.08368711
    C      0.53781787      3.33277910      1.64854171      4.08807352
    C      0.62259084      2.30662895      0.69275358      4.12049386
    C      1.45529542      2.57554955     -0.52610391      3.32641291
    O      1.86250914      3.69835738     -0.77885079      6.52176044
    O      1.77070921      1.51333962     -1.32749030      6.50265426
    H     -4.42582778     -1.09660378      1.61895598      0.93764929
    H     -5.32247799     -0.30929490      0.30709047      0.93970237
    H     -4.56219130      0.67118930      1.62370472      0.94393356
    H     -4.36414231      3.73504314     -1.94442348      0.88635927
    H     -2.15233092      3.76236806     -3.09749742      0.89813433
    H     -0.51239030      1.96867414     -2.64504100      0.89019844
    H     -1.37150342      1.77836014      3.99108956      0.88873571
    H     -0.23935141      3.95936350      3.54763958      0.90165370
    H      1.04870684      4.26473684      1.45968840      0.87863989
    H      1.35102068      0.68032115     -1.05800010      0.63296812
   31
Geometry Step: 5
    C     -4.46161079     -0.21560950      0.98266205      3.95364053
    O     -3.24488657     -0.16890837      0.25070599      6.28727642
    C     -3.02742560      0.90308791     -0.58069523      3.81732420
    C     -3.94519263      1.93300184     -0.86780111      3.69892805
    F     -5.16757025      1.96477294     -0.29383425      7.26915253
    C     -3.62768257      2.96295788     -1.75290290      4.17719681
    C     -2.39490323      2.98218105     -2.39985651      4.10382682
    C     -1.46580179      1.97298073     -2.13856970      4.14883002
    C     -1.75100695      0.96548493     -1.19930669      3.95242431
    N     -0.78532448     -0.10600152     -0.98628937      5.03713687
    N      0.00072988     -0.04122287     -0.01127913      5.09140807
    C     -0.07504181      1.09315347      0.91503090      3.97376823
    C     -0.74529867      0.92107462      2.13991285      3.62317299
    F     -1.34046751     -0.25346994      2.40114444      7.24928296
    C     -0.82506498      1.94693959      3.08284594      4.16921594
    C     -0.18730394      3.15800392      2.82479185      4.08263591
    C      0.53777622      3.33422231      1.65133073      4.08778778
    C      0.62111278      2.30456384      0.69078190      4.12552072
    C      1.45797143      2.57238500     -0.53229556      3.32551679
    O      1.86584400      3.69903034     -0.78280758      6.52894606
    O      1.77480084      1.52412800     -1.33049008      6.49151687
    H     -4.42258596     -1.10356643      1.62213727      0.93944429
    H     -5.32235071     -0.30831095      0.30974844      0.93917369
    H     -4.56427407      0.66894843      1.62194707      0.94283327
    H     -4.36841604      3.73960986     -1.94526108      0.89120685
    H     -2.15175988      3.76415279     -3.09921895      0.89488397
    H     -0.50484137      1.96863909     -2.64666760      0.89407146
    H     -1.37436968      1.77855144      3.99710332      0.88817906
    H     -0.23981810      3.96086383      3.54893848      0.90205040
    H      1.05215775      4.26757495      1.45629428      0.87779991
    H      1.35541729      0.68089114     -1.05654129      0.63584823
   31
Geometry Step: 6
    C     -4.46047152     -0.21640614      0.98247537      3.95337775
    O     -3.24557661     -0.16843709      0.24993185      6.28535025
    C     -3.02600115      0.90012283     -0.57951391      3.81453355
    C     -3.94271731      1.93295547     -0.86864071      3.70110216
    F     -5.16802093      1.96380403     -0.29288069      7.27086497
    C     -3.62904971      2.96463835     -1.75329046      4.17735699
    C     -2.39345404      2.97966688     -2.39834257      4.10444334
    C     -1.46475425      1.97294768     -2.13908075      4.14706643
    C     -1.75537401      0.96968948     -1.20096311      3.95424561
    N     -0.78487956     -0.10540362     -0.98763335      5.03943722
    N      0.00311082     -0.04010280     -0.01097577      5.09219253
    C     -0.07375615      1.09610797      0.91735022      3.97416031
    C     -0.74599736      0.92058415      2.14035032      3.62197996
    F     -1.33975256     -0.25217049      2.40157415      7.24839550
    C     -0.82472418      1.94571002      3.08071516      4.17021114
    C     -0.18640343      3.15831594      2.82314890      4.08298058
    C      0.53779000      3.33374494      1.65040820      4.08788432
    C      0.62160168      2.30524692      0.69143407      4.12385655
    C      1.45708629      2.57343174     -0.53024755      3.32580098
    O      1.86474093      3.69880775     -0.78149879      6.52656348
    O      1.77344745      1.52055953     -1.32949784      6.49522304
    H     -4.42365825     -1.10126339      1.62108499      0.93885350
    H     -5.32239281     -0.30863641      0.30886927      0.93935118
    H     -4.56358515      0.66968964      1.62252845      0.94319874
    H     -4.36700242      3.73809932     -1.94498403      0.88958421
    H     -2.15194876      3.76356246     -3.09864952      0.89595033
    H     -0.50733833      1.96865068     -2.64612957      0.89278422
    H     -1.37342161      1.77848816      3.99511415      0.88836143
    H     -0.23966373      3.96036756      3.54850884      0.90191996
    H      1.05101629      4.26663619      1.45741695      0.87808048
    H      1.35396302      0.68070261     -1.05702382      0.63488928
   31
Geometry Step: 7
    C     -4.46128517     -0.21907096      0.98496766      3.95353864
    O     -3.24497245     -0.16533417      0.24996711      6.28659911
    C     -3.02212786      0.90090647     -0.58078491      3.81549975
    C     -3.94608093      1.93392396     -0.86846808      3.70121350
    F     -5.16925450      1.96714421     -0.29493418      7.26897475
    C     -3.63318420      2.96674859     -1.75344270      4.17910928
    C     -2.39386925      2.97993646     -2.39949873      4.10601860
    C     -1.46413719      1.96875305     -2.13585830      4.14779533
    C     -1.75232003      0.96653470     -1.20017765      3.94929445
    N     -0.79118376     -0.10772967     -0.98942203      5.04048178
    N      0.00158068     -0.04331026     -0.00439229      5.09328217
    C     -0.07674189      1.09104172      0.91284213      3.96896222
    C     -0.74506279      0.92081910      2.13917302      3.62318193
    F     -1.34073965     -0.25306007      2.40039981      7.24969615
    C     -0.82663988      1.94311597      3.08425089      4.17038113
    C     -0.18655691      3.16097327      2.82649969      4.08452333
    C      0.53702942      3.33064327      1.65065284      4.08704206
    C      0.61954253      2.30196685      0.68921653      4.12689557
    C      1.45931737      2.57582188     -0.53353830      3.32629002
    O      1.86766221      3.69923549     -0.78495918      6.52421195
    O      1.77466500      1.52181727     -1.33210762      6.49513247
    H     -4.42085309     -1.10570263      1.62263743      0.93799242
    H     -5.32329785     -0.30785914      0.31093055      0.93926301
    H     -4.56615268      0.66861890      1.62191842      0.94293887
    H     -4.36811979      3.73929460     -1.94491723      0.88874617
    H     -2.15128232      3.76777060     -3.10228631      0.89607816
    H     -0.50266720      1.96928662     -2.64649710      0.89392147
    H     -1.37650489      1.77896554      4.00193707      0.88793107
    H     -0.24042413      3.96257425      3.55082164      0.90082969
    H      1.05440591      4.26942060      1.45434005      0.87949074
    H      1.36206791      0.68686388     -1.05771177      0.63468421
   31
Geometry Step: 8
    C     -4.46117381     -0.21870625      0.98462656      3.95351555
    O     -3.24505514     -0.16575884      0.24996228      6.28642241
    C     -3.02265796      0.90079922     -0.58061096      3.81536951
    C     -3.94562059      1.93379141     -0.86849171      3.70120653
    F     -5.16908567      1.96668708     -0.29465314      7.26923216
    C     -3.63261836      2.96645978     -1.75342186      4.17886828
    C     -2.39381242      2.97989956     -2.39934050      4.10579954
    C     -1.46422164      1.96932713     -2.13629932      4.14769849
    C     -1.75273800      0.96696646     -1.20028515      3.94996688
    N     -0.79032096     -0.10741133     -0.98917723      5.04034657
    N      0.00179009     -0.04287129     -0.00529331      5.09314201
    C     -0.07633326      1.09173509      0.91345911      3.96966974
    C     -0.74519070      0.92078695      2.13933414      3.62302002
    F     -1.34060456     -0.25293832      2.40056053      7.24951728
    C     -0.82637770      1.94347099      3.08376698      4.17035757
    C     -0.18653590      3.16060958      2.82604110      4.08431170
    C      0.53713352      3.33106776      1.65061936      4.08715737
    C      0.61982434      2.30241576      0.68952003      4.12648059
    C      1.45901202      2.57549477     -0.53308793      3.32621859
    O      1.86726240      3.69917695     -0.78448559      6.52453683
    O      1.77449837      1.52164514     -1.33175045      6.49513763
    H     -4.42123701     -1.10509507      1.62242496      0.93810823
    H     -5.32317399     -0.30796552      0.31064844      0.93927709
    H     -4.56580129      0.66876545      1.62200191      0.94297605
    H     -4.36796687      3.73913102     -1.94492637      0.88885865
    H     -2.15137353      3.76719467     -3.10178858      0.89606030
    H     -0.50330649      1.96919959     -2.64644680      0.89376584
    H     -1.37608291      1.77890021      4.00100328      0.88798931
    H     -0.24032006      3.96227224      3.55050511      0.90097721
    H      1.05394201      4.26903952      1.45476115      0.87929796
    H      1.36095867      0.68602065     -1.05761762      0.63471411
   31
Geometry Step: 9
    C     -4.46056158     -0.22221687      0.98687762      3.95317859
    O     -3.24506450     -0.16237716      0.25023864      6.28663333
    C     -3.02113087      0.90132087     -0.58032552      3.81273114
    C     -3.94442952      1.93446993     -0.87016515      3.70298437
    F     -5.17211028      1.96977269     -0.29572124      7.27107301
    C     -3.63547082      2.96896739     -1.75476501      4.17850918
    C     -2.39334255      2.97714636     -2.39860463      4.10538181
    C     -1.46175443      1.96848240     -2.13648680      4.14697359
    C     -1.75336586      0.96634372     -1.20040756      3.95251956
    N     -0.79036742     -0.11103911     -0.98428533      5.03966884
    N     -0.00517522     -0.04759190     -0.00561064      5.09052089
    C     -0.07822578      1.09001285      0.91124185      3.97097739
    C     -0.74594271      0.91988868      2.13983149      3.62259297
    F     -1.34103407     -0.25259480      2.39917437      7.24887986
    C     -0.82702587      1.94215259      3.08591305      4.17029177
    C     -0.18705820      3.16010517      2.82796112      4.08372035
    C      0.53704842      3.32905117      1.65015510      4.08789954
    C      0.61791098      2.29945811      0.68678030      4.12671691
    C      1.46016421      2.57755477     -0.53498945      3.32737907
    O      1.87054426      3.70079818     -0.78799654      6.52337732
    O      1.77698269      1.52415840     -1.33576870      6.49466812
    H     -4.41825163     -1.10883378      1.62335033      0.93733983
    H     -5.32435961     -0.30753017      0.31281369      0.93945804
    H     -4.56873909      0.66775964      1.62204030      0.94318847
    H     -4.36932161      3.74048425     -1.94486822      0.88749955
    H     -2.15089169      3.77067317     -3.10485060      0.89799533
    H     -0.50099922      1.96978321     -2.64525678      0.89314892
    H     -1.37888745      1.77922861      4.00741189      0.88852165
    H     -0.24113567      3.96528357      3.55355712      0.90126618
    H      1.05601456      4.26894523      1.45199522      0.87969234
    H      1.36879313      0.69045319     -1.05768149      0.63521207
   31
Geometry Step: 10
    C     -4.45957097     -0.22789718      0.99051991      3.95267082
    O     -3.24507965     -0.15690549      0.25068580      6.28701400
    C     -3.01865998      0.90216492     -0.57986367      3.80844743
    C     -3.94250235      1.93556781     -0.87287284      3.70587309
    F     -5.17700419      1.97476532     -0.29744946      7.27401426
    C     -3.64008621      2.97302479     -1.75693828      4.17789428
    C     -2.39258227      2.97269157     -2.39741399      4.10464647
    C     -1.45776239      1.96711559     -2.13679014      4.14576105
    C     -1.75438176      0.96533610     -1.20060564      3.95679022
    N     -0.79044259     -0.11690897     -0.97637007      5.03853897
    N     -0.01644533     -0.05523002     -0.00612408      5.08613976
    C     -0.08128794      1.08722622      0.90765425      3.97323359
    C     -0.74715949      0.91843525      2.14063622      3.62186702
    F     -1.34172903     -0.25203898      2.39693151      7.24784458
    C     -0.82807463      1.94001937      3.08938547      4.17020906
    C     -0.18790329      3.15928901      2.83106777      4.08274613
    C      0.53691074      3.32578825      1.64940392      4.08912824
    C      0.61481509      2.29467254      0.68234734      4.12704212
    C      1.46202848      2.58088792     -0.53806618      3.32925843
    O      1.87585442      3.70342137     -0.79367738      6.52149545
    O      1.78100242      1.52822495     -1.34227036      6.49400020
    H     -4.41342120     -1.11488313      1.62484760      0.93608222
    H     -5.32627799     -0.30682575      0.31631714      0.93972029
    H     -4.57349254      0.66613220      1.62210243      0.94350200
    H     -4.37151363      3.74267382     -1.94477412      0.88532487
    H     -2.15011205      3.77630150     -3.10980507      0.90117607
    H     -0.49726597      1.97072753     -2.64333129      0.89215208
    H     -1.38342530      1.77975997      4.01778124      0.88937806
    H     -0.24245536      3.97015599      3.55849539      0.90173267
    H      1.05936802      4.26879267      1.44751985      0.88033630
    H      1.38146955      0.69762519     -1.05778485      0.63598025
   31
Geometry Step: 11
    C     -4.46056059     -0.22222254      0.98688126      3.95317554
    O     -3.24506452     -0.16237169      0.25023909      6.28664374
    C     -3.02112840      0.90132171     -0.58032506      3.81273029
    C     -3.94442760      1.93447103     -0.87016785      3.70299214
    F     -5.17211516      1.96977767     -0.29572296      7.27107343
    C     -3.63547543      2.96897144     -1.75476718      4.17851500
    C     -2.39334179      2.97714191     -2.39860345      4.10537267
    C     -1.46175044      1.96848103     -2.13648710      4.14696491
    C     -1.75336687      0.96634271     -1.20040776      3.95252682
    N     -0.79036750     -0.11104497     -0.98427743      5.03965897
    N     -0.00518647     -0.04759953     -0.00561115      5.09052753
    C     -0.07822883      1.09001007      0.91123827      3.97098156
    C     -0.74594392      0.91988723      2.13983230      3.62258200
    F     -1.34103476     -0.25259425      2.39917213      7.24888211
    C     -0.82702692      1.94215046      3.08591652      4.17028176
    C     -0.18705904      3.16010435      2.82796422      4.08371384
    C      0.53704829      3.32904791      1.65015435      4.08790286
    C      0.61790789      2.29945333      0.68677588      4.12672202
    C      1.46016607      2.57755810     -0.53499252      3.32738491
    O      1.87054956      3.70080080     -0.78800221      6.52337559
    O      1.77698671      1.52416246     -1.33577519      6.49466579
    H     -4.41824681     -1.10883982      1.62335182      0.93733766
    H     -5.32436153     -0.30752946      0.31281719      0.93945716
    H     -4.56874383      0.66775801      1.62204037      0.94318743
    H     -4.36932380      3.74048643     -1.94486812      0.88749528
    H     -2.15089091      3.77067879     -3.10485555      0.89800027
    H     -0.50099549      1.96978415     -2.64525486      0.89314652
    H     -1.37889199      1.77922914      4.00742225      0.88852441
    H     -0.24113699      3.96528843      3.55356205      0.90126841
    H      1.05601791      4.26894508      1.45199075      0.87969592
    H      1.36880579      0.69046035     -1.05768160      0.63521345
   31
Geometry Step: 12
    C     -4.45943647     -0.22442940      0.98808479      3.95251228
    O     -3.24548797     -0.16013164      0.25190724      6.28565819
    C     -3.02343458      0.90327664     -0.57916150      3.81165353
    C     -3.94292350      1.93615263     -0.87257705      3.70377498
    F     -5.17437554      1.97245809     -0.29695329      7.27306654
    C     -3.63403157      2.96894862     -1.75684395      4.17632270
    C     -2.39257429      2.97665930     -2.39963804      4.10507902
    C     -1.45931805      1.96971330     -2.13823687      4.14665064
    C     -1.75448931      0.96713557     -1.20156143      3.95406141
    N     -0.79442908     -0.11679667     -0.98424118      5.03984821
    N     -0.00865293     -0.05344434     -0.00143446      5.09163280
    C     -0.08068764      1.09041228      0.91228995      3.97152944
    C     -0.74722118      0.91952346      2.14097072      3.62193367
    F     -1.34173709     -0.25244098      2.39775170      7.24819987
    C     -0.82771420      1.94155014      3.08891936      4.17030631
    C     -0.18704820      3.15821024      2.82836710      4.08255908
    C      0.53721781      3.32776049      1.64950480      4.08866191
    C      0.61698208      2.29912875      0.68375777      4.12655809
    C      1.46118641      2.57983414     -0.53728819      3.32794557
    O      1.87359555      3.70238823     -0.79089737      6.52328700
    O      1.78118623      1.53001376     -1.34120991      6.49279887
    H     -4.41444830     -1.11288604      1.62402515      0.93752824
    H     -5.32531516     -0.30777211      0.31580564      0.93981454
    H     -4.57224436      0.66579734      1.62265711      0.94358994
    H     -4.37181165      3.74308284     -1.94518032      0.88808760
    H     -2.15112038      3.77092882     -3.10528433      0.89828868
    H     -0.49962147      1.97038187     -2.64294042      0.89214557
    H     -1.38057209      1.77964216      4.01216284      0.88849834
    H     -0.24197472      3.96776479      3.55625498      0.90224487
    H      1.05653416      4.26503493      1.44937249      0.87935705
    H      1.37678012      0.69221313     -1.05682487      0.63640504
   31
Geometry Step: 13
    C     -4.45761760     -0.22800016      0.99003213      3.95146005
    O     -3.24617314     -0.15650715      0.25460637      6.28408434
    C     -3.02716605      0.90643978     -0.57727882      3.80994481
    C     -3.94048980      1.93887351     -0.87647521      3.70499369
    F     -5.17803291      1.97679508     -0.29894400      7.27624980
    C     -3.63169536      2.96891170     -1.76020422      4.17283674
    C     -2.39133245      2.97587843     -2.40131205      4.10459164
    C     -1.45538236      1.97170716     -2.14106806      4.14613537
    C     -1.75630546      0.96841844     -1.20342810      3.95656580
    N     -0.80100086     -0.12610312     -0.98418254      5.04017301
    N     -0.01426177     -0.06290143      0.00532355      5.09335927
    C     -0.08466608      1.09106307      0.91399162      3.97245058
    C     -0.74928784      0.91893488      2.14281273      3.62089449
    F     -1.34287348     -0.25219299      2.39545340      7.24709494
    C     -0.82882625      1.94057879      3.09377806      4.17034486
    C     -0.18703066      3.15514551      2.82901897      4.08066601
    C      0.53749211      3.32567739      1.64845379      4.08986875
    C      0.61548410      2.29860357      0.67887437      4.12630687
    C      1.46283734      2.58351686     -0.54100266      3.32887359
    O      1.87852405      3.70495675     -0.79558184      6.52309981