   35
Geometry Step: 0
    C     -4.34222530      1.65783936      0.36532240      3.95249915
    O     -3.48949569      2.24281483     -0.60231805      6.27158561
    C     -2.53103821      1.52848684     -1.24000379      3.73027627
    C     -2.00994989      0.27173993     -0.81810098      3.98493301
    N     -2.59394040     -0.46189589      0.28301683      5.07903019
    N     -1.84651081     -1.05415900      1.11039286      5.05826994
    C     -0.43154314     -0.85437085      1.20828344      3.85137406
    C      0.07483733      0.37245577      1.71292315      3.98808443
    C     -0.82513551      1.55681411      1.94118431      4.24309026
    C      1.43783650      0.46797495      2.01084077      4.07987851
    C      2.29899951     -0.62054411      1.84585078      4.09072290
    C      1.79352040     -1.83942598      1.40227509      4.09872398
    C      0.42640635     -1.98299264      1.10302961      4.15625164
    C     -0.14074744     -3.26504924      0.56692197      3.33375293
    O     -1.16271733     -3.30532613     -0.10458778      6.52031706
    O      0.54846717     -4.40824400      0.85387478      6.48200147
    C     -1.02973779     -0.36315375     -1.60498790      4.09537341
    C     -0.49932294      0.24147533     -2.74627905      4.22500399
    C     -0.95379258      1.51458484     -3.10365514      3.60832616
    F     -0.43673224      2.11578963     -4.17852645      7.24105474
    C     -1.95985380      2.17339428     -2.37189858      4.11973383
    C     -2.43526617      3.47193504     -2.77769956      3.80485495
    N     -2.81533012      4.51371385     -3.09789891      5.28933152
    H     -5.04917588      2.43271327      0.67672536      0.93349147
    H     -3.77722195      1.31463299      1.24507151      0.94158274
    H     -4.90095475      0.81264365     -0.05795219      0.93778340
    H     -1.77153414      1.25459878      2.38785163      0.91146639
    H     -0.34957117      2.28098565      2.59842335      0.91408737
    H     -1.06001161      2.06841082      1.00499481      0.90865466
    H      1.83095498      1.41112708      2.38325417      0.91307278
    H      3.35629684     -0.51949236      2.07162007      0.90998775
    H      2.46932973     -2.68380505      1.27214023      0.92737861
    H      1.30407102     -4.25056321      1.43529570      0.64871942
    H     -0.72620576     -1.37064329     -1.33474707      0.86998733
    H      0.24503992     -0.26414460     -3.35182515      0.87931807
