35
Properties=species:S:1:pos:R:3:forces:R:3 energy=-1449.9381971629907 pbc="F F F"
C      -3.53341870       1.85705006       0.57857515       0.00092625       0.00127954      -0.00232177 
O      -3.54959601       2.21683517      -0.78895954      -0.00066818      -0.00004480      -0.00064897 
C      -2.78266740       1.60037919      -1.71537386      -0.00027288      -0.00154936      -0.00056524 
C      -1.70268902       0.70507607      -1.46129532      -0.00182104       0.00038039       0.00291069 
N      -1.35991985       0.31476041      -0.12351651       0.00222096      -0.00108163      -0.00181849 
N      -0.19110089      -0.20699514      -0.01205455      -0.00232765      -0.00043792       0.00091316 
C       0.26612722      -0.63248754       1.25738933      -0.00045266       0.00135490      -0.00102026 
C       0.52283941       0.30261153       2.29542977       0.00094846      -0.00004453      -0.00106147 
C       0.16236509       1.75509351       2.13829081       0.00019937      -0.00072019       0.00000768 
C       1.12257131      -0.14893058       3.47375343      -0.00099667      -0.00004396       0.00088397 
C       1.47809400      -1.49177601       3.64156616       0.00019308       0.00054912      -0.00018580 
C       1.26107976      -2.40093196       2.61040878      -0.00022132      -0.00017125       0.00081955 
C       0.67312006      -1.98913953       1.39979310       0.00012230       0.00098226       0.00031225 
C       0.44140354      -2.90665979       0.23971966      -0.00132852      -0.00060378      -0.00289517 
O      -0.13781261      -2.54813555      -0.78075255       0.00162144      -0.00253522       0.00137054 
O       0.92982997      -4.17725633       0.33611714       0.00030738      -0.00270204      -0.00161882 
C      -1.01800900       0.13173609      -2.55712317      -0.00196811       0.00072142      -0.00048116 
C      -1.33443799       0.45133723      -3.87409607       0.00049710       0.00060872       0.00134347 
C      -2.36038479       1.37512827      -4.11155966      -0.00171276       0.00142461      -0.00102776 
F      -2.66703943       1.70079310      -5.36916258       0.00189149      -0.00107642       0.00060293 
C      -3.09037095       1.95645791      -3.05985991      -0.00037896       0.00069334      -0.00216266 
C      -4.15581189       2.88770991      -3.33316254      -0.00371191       0.00262734      -0.00124394 
N      -5.00786366       3.63526837      -3.55147645       0.00172082      -0.00067122       0.00407424 
H      -4.30443387       2.45567843       1.07427568      -0.00240958      -0.00147886      -0.00170370 
H      -2.55974176       2.07899669       1.04137898       0.00087956       0.00226388       0.00003196 
H      -3.76463348       0.79189736       0.71347546       0.00240602      -0.00082733       0.00123316 
H       0.32150190       2.09606662       1.11715331       0.00079319       0.00079540      -0.00140751 
H      -0.89018501       1.92983463       2.37574057       0.00041132       0.00043355       0.00053456 
H       0.75188352       2.37687341       2.80848876       0.00109902      -0.00041661       0.00180327 
H       1.31353286       0.56001576       4.27624062      -0.00051708       0.00058715       0.00111155 
H       1.93184961      -1.82347398       4.57060502       0.00044338      -0.00003453       0.00219067 
H       1.55115896      -3.44154369       2.75494031       0.00137313       0.00076063      -0.00197908 
H       1.38512299      -4.34355400       1.17154120       0.00003540      -0.00041885       0.00300699 
H      -0.24425083      -0.60024442      -2.34233435      -0.00171314      -0.00070100       0.00151717 
H      -0.81036790      -0.00815029      -4.70534395       0.00241079       0.00009725      -0.00252601 
35
Properties=species:S:1:pos:R:3 pbc="F F F"
C      -3.63350044       1.83845913       0.57115174 
O      -3.55046230       2.23317301      -0.77776945 
C      -2.76154252       1.59333040      -1.65737599 
C      -1.73968080       0.65658849      -1.39587146 
N      -1.51788215       0.23063760      -0.05693265 
N      -0.37076413      -0.29382335       0.05937558 
C       0.19377658      -0.66876191       1.26472518 
C       0.47359200       0.29736225       2.22192883 
C       0.05438515       1.71560360       2.12766683 
C       1.18170268      -0.08572866       3.34056896 
C       1.58151156      -1.39893825       3.45180096 
C       1.33561202      -2.35002972       2.49368648 
C       0.63759255      -1.99098229       1.34547815 
C       0.37441369      -2.95834331       0.26522511 
O      -0.26565045      -2.63141398      -0.72277878 
O       0.87986004      -4.21392708       0.37150367 
C      -1.02168036       0.07134473      -2.44773344 
C      -1.24838548       0.42284261      -3.76644008 
C      -2.21836309       1.38983517      -4.00873037 
F      -2.44046391       1.74884950      -5.26918776 
C      -2.97458995       1.98095439      -2.99867077 
C      -3.97952784       2.95472912      -3.28248444 
N      -4.78823547       3.74138055      -3.51027001 
H      -4.39558082       2.46163877       1.04716900 
H      -2.67488473       2.00579018       1.08263860 
H      -3.90474203       0.77594829       0.65125255 
H       0.12353324       2.05143464       1.08897544 
H      -0.96169744       1.96708848       2.45264230 
H       0.66604902       2.43229645       2.68993854 
H       1.39739500       0.65528940       4.10119525 
H       2.12612014      -1.69647822       4.33981267 
H       1.67771286      -3.36896081       2.63619399 
H       1.38153565      -4.36145814       1.18167063 
H      -0.28988564      -0.69965901      -2.22798232 
H      -0.69952747      -0.04575115      -4.57356070 
35
Properties=species:S:1:pos:R:3 pbc="F F F"
C      -3.73053071       1.81936076       0.56094975 
O      -3.54867270       2.24828661      -0.76503943 
C      -2.74147904       1.58703718      -1.60370544 
C      -1.77629215       0.60945818      -1.33437595 
N      -1.68203471       0.14900348       0.00214490 
N      -0.56206486      -0.39033185       0.13947475 
C       0.12530306      -0.70658275       1.26596074 
C       0.43072065       0.29338373       2.15275234 
C      -0.06639971       1.71844409       2.12832904 
C       1.24519577      -0.02187482       3.21057459 
C       1.68731319      -1.31149675       3.27110560 
C       1.41011271      -2.29795602       2.37624257 
C       0.60144451      -1.99933305       1.29728453 
C       0.30715724      -3.00987709       0.28987815 
O      -0.39054567      -2.71448368      -0.66381915 
O       0.82908175      -4.25076048       0.40791386 
C      -1.02441800       0.01268600      -2.34354291 
C      -1.16117659       0.39729362      -3.65985159 
C      -2.07610819       1.40585698      -3.90949493 
F      -2.21226175       1.79821498      -5.16836409 
C      -2.85864866       2.00644801      -2.93855195 
C      -3.80436122       3.02173065      -3.23377872 
N      -4.56872839       3.84523281      -3.47065754 
H      -4.48381799       2.46610633       1.01718303 
H      -2.79388615       1.92791078       1.12426283 
H      -4.04231042       0.76422038       0.58461324 
H      -0.10433905       1.97950685       1.08592053 
H      -1.01829712       2.00089193       2.55294172 
H       0.59335007       2.48033628       2.52898770 
H       1.48402088       0.74836753       3.92888622 
H       2.32077816      -1.56830441       4.10672385 
H       1.81251878      -3.29073947       2.51557159 
H       1.37165309      -4.38370118       1.19269246 
H      -0.33637861      -0.79461722      -2.11739946 
H      -0.58815302      -0.07939748      -4.44300059 
35
Properties=species:S:1:pos:R:3 pbc="F F F"
C      -3.82295698       1.80025138       0.54668583 
O      -3.54573497       2.26074098      -0.75178516 
C      -2.72296205       1.58099037      -1.55656345 
C      -1.81203729       0.56266396      -1.27874382 
N      -1.84543860       0.06709730       0.04666274 
N      -0.76213113      -0.49694768       0.23704409 
C       0.06317216      -0.74084144       1.26131177 
C       0.39393493       0.29883909       2.08560135 
C      -0.17425826       1.71993687       2.15433234 
C       1.30590956       0.04229613       3.07773490 
C       1.78951390      -1.22834298       3.09702138 
C       1.48000631      -2.24553803       2.25862233 
C       0.56729328      -2.01089918       1.25822621 
C       0.24203781      -3.05859485       0.31573522 
O      -0.50802376      -2.79522053      -0.60411132 
O       0.78086645      -4.28564783       0.44829281 
C      -1.02533271      -0.04265439      -2.24619420 
C      -1.07394178       0.37538706      -3.55527520 
C      -1.93515996       1.42281515      -3.81452551 
F      -1.98597092       1.84755000      -5.06667798 
C      -2.74421423       2.03227610      -2.88005110 
C      -3.63246383       3.08695945      -3.18675174 
N      -4.35254194       3.94436766      -3.43255976 
H      -4.56776335       2.46863838       0.98416634 
H      -2.91641322       1.84850403       1.16515485 
H      -4.17399956       0.75698917       0.51358322 
H      -0.37381665       1.88968360       1.12013131 
H      -1.04369579       2.03885321       2.68679313 
H       0.52643961       2.52671264       2.30859757 
H       1.56853699       0.83766908       3.75678368 
H       2.50600067      -1.44081497       3.87183859 
H       1.94637773      -3.20986443       2.38328419 
H       1.35620749      -4.40290740       1.21149691 
H      -0.38208475      -0.88259283      -2.01195292 
H      -0.47761000      -0.10803417      -4.31509638 
35
Properties=species:S:1:pos:R:3 pbc="F F F"
C      -3.91697036       1.78089732       0.52360927 
O      -3.54389894       2.26977751      -0.74057229 
C      -2.70490936       1.57448990      -1.51621746 
C      -1.84507356       0.51620255      -1.22830026 
N      -2.00146946      -0.02482758       0.06951637 
N      -0.96364727      -0.60846437       0.35569258 
C       0.00753701      -0.76378327       1.25318340 
C       0.35016350       0.31660739       2.02558950 
C      -0.23333230       1.72349885       2.19599265 
C       1.35714454       0.10533232       2.93864512 
C       1.88290880      -1.14787843       2.92580570 
C       1.54268647      -2.19318602       2.14102473 
C       0.53566670      -2.01982279       1.22767520 
C       0.18082251      -3.10217135       0.34407217 
O      -0.61592414      -2.87248589      -0.54357602 
O       0.73768012      -4.31664907       0.49364425 
C      -1.02306218      -0.09346995      -2.15428993 
C      -0.98631337       0.35733849      -3.45142545 
C      -1.79475195       1.44066673      -3.72208384 
F      -1.76163541       1.89644199      -4.96240860 
C      -2.63065882       2.05825871      -2.82232731 
C      -3.46329063       3.14981425      -3.14010753 
N      -4.13944815       4.03821327      -3.39491954 
H      -4.65053118       2.46982797       0.94752036 
H      -3.05648924       1.77005797       1.20679646 
H      -4.30076433       0.75232466       0.43651204 
H      -0.69736730       1.77847839       1.23928122 
H      -0.99431056       2.08370721       2.84664162 
H       0.43374858       2.55375574       1.99959213 
H       1.65379171       0.91743477       3.58415878 
H       2.67456264      -1.31455814       3.63386089 
H       2.06938073      -3.12883176       2.23622593 
H       1.33901229      -4.41261064       1.23963779 
H      -0.42600992      -0.96276516      -1.91091943 
H      -0.36750202      -0.13130065      -4.18871828 
35
Properties=species:S:1:pos:R:3 pbc="F F F"
C      -4.01811257       1.76479210       0.48115370 
O      -3.53822650       2.27576403      -0.73168821 
C      -2.68044419       1.57015926      -1.47712443 
C      -1.86259007       0.48412353      -1.17442815 
N      -2.12148468      -0.10783022       0.07688357 
N      -1.13737260      -0.70420477       0.47895570 
C      -0.04215669      -0.77731215       1.23893240 
C       0.30323816       0.32663031       1.98568415 
C      -0.23336247       1.75934287       2.18390114 
C       1.39257406       0.15887283       2.81176229 
C       1.95910260      -1.07702273       2.77043217 
C       1.59319256      -2.14551092       2.03320623 
C       0.50937192      -2.02343888       1.20478475 
C       0.12941087      -3.13633228       0.37154272 
O      -0.70559016      -2.93951083      -0.48796227 
O       0.70388478      -4.34035334       0.53834551 
C      -1.01916135      -0.13375778      -2.07034879 
C      -0.90663225       0.34389412      -3.35424547 
C      -1.66730309       1.45764942      -3.63637815 
F      -1.55928469       1.94029681      -4.86217671 
C      -2.52686082       2.08119953      -2.76503445 
C      -3.31060614       3.20425430      -3.09485377 
N      -3.94718036       4.11871213      -3.35857208 
H      -4.73188736       2.47264045       0.90890534 
H      -3.22472005       1.70375051       1.23946122 
H      -4.41549047       0.74669055       0.35691539 
H      -1.02351747       1.61052183       1.48980243 
H      -0.82297695       2.15035761       2.97942577 
H       0.25106705       2.54192198       1.64034069 
H       1.73056900       0.97786828       3.42897281 
H       2.81146733      -1.20058765       3.41365305 
H       2.16641361      -3.05649960       2.09157680 
H       1.32576806      -4.41033729       1.27055749 
H      -0.46510475      -1.02858262      -1.82111765 
H      -0.26824914      -0.14784048      -4.07245298 
35
Properties=species:S:1:pos:R:3 pbc="F F F"
C      -4.08338917       1.74993858       0.45493042 
O      -3.52125078       2.27807093      -0.71069264 
C      -2.64980240       1.56650607      -1.43080853 
C      -1.87567893       0.45604356      -1.10679252 
N      -2.20538667      -0.14913639       0.11306153 
N      -1.29337484      -0.78545127       0.60786639 
C      -0.09799179      -0.79412213       1.21854945 
C       0.26559771       0.31618652       1.93960659 
C      -0.31304422       1.74841254       2.08282754 
C       1.41508520       0.21376901       2.68256119 
C       2.02360832      -1.00007295       2.61507852 
C       1.63872888      -2.09653550       1.92630743 
C       0.48669009      -2.02460427       1.18459408 
C       0.08093534      -3.16570598       0.40004963 
O      -0.78956579      -3.00311903      -0.43119694 
O       0.67358927      -4.36000273       0.58513107 
C      -1.01984133      -0.17048463      -1.98644111 
C      -0.83199508       0.33092576      -3.25557650 
C      -1.54495011       1.47369192      -3.54895044 
F      -1.36415057       1.98131408      -4.75711099 
C      -2.42701939       2.10138486      -2.70095673 
C      -3.16181000       3.25529082      -3.04456749 
N      -3.75837973       4.19439834      -3.31785224 
H      -4.79191148       2.46817928       0.87150716 
H      -3.32321744       1.63918250       1.23594509 
H      -4.50870696       0.75087615       0.28254095 
H      -1.28588602       1.41996487       1.83146950 
H      -0.59425039       2.24510101       2.98945091 
H      -0.05321578       2.47564334       1.36359344 
H       1.75097425       1.06648801       3.25183698 
H       2.92845473      -1.08407256       3.18965196 
H       2.24477196      -2.98817656       1.94236839 
H       1.31604453      -4.39763257       1.30229980 
H      -0.50685114      -1.08922217      -1.73529940 
H      -0.17506513      -0.16270849      -3.95617030 
35
Properties=species:S:1:pos:R:3 pbc="F F F"
C      -4.13705987       1.72905507       0.44529582 
O      -3.50881762       2.27495003      -0.68229734 
C      -2.62192854       1.55842952      -1.38188492 
C      -1.90360608       0.41314104      -1.03367105 
N      -2.29742557      -0.21341437       0.15910567 
N      -1.45178089      -0.86343051       0.75468740 
C      -0.17249282      -0.80977380       1.20447195 
C       0.22128879       0.31439438       1.87972337 
C      -0.45933321       1.69067400       2.01701710 
C       1.43420048       0.27736536       2.52117918 
C       2.09251180      -0.90958615       2.42895033 
C       1.68599609      -2.03771062       1.79844339 
C       0.46388840      -2.01941365       1.16390622 
C       0.02626580      -3.19468816       0.43732429 
O      -0.88430737      -3.07623419      -0.35907021 
O       0.64101273      -4.37809382       0.64469701 
C      -1.02376000      -0.21535724      -1.89368228 
C      -0.75057910       0.31313345      -3.13938122 
C      -1.40597382       1.48853004      -3.44591692 
F      -1.14225544       2.02264607      -4.62874943 
C      -2.31504986       2.12233032      -2.62537594 
C      -2.99083613       3.31164633      -2.98271343 
N      -3.53869027       4.27815080      -3.26680816 
H      -4.85075955       2.45883082       0.83116585 
H      -3.40903116       1.55410259       1.24316941 
H      -4.60498156       0.76303909       0.20424945 
H      -1.45489250       1.33705309       2.08693515 
H      -0.43304617       2.31192978       2.89445947 
H      -0.37817282       2.37217733       1.20751224 
H       1.77316011       1.16074439       3.03900586 
H       3.05006761      -0.94789124       2.91972513 
H       2.31590158      -2.91344476       1.76701424 
H       1.31036916      -4.37047173       1.33855493 
H      -0.55932118      -1.15927403      -1.63943428 
H      -0.07281586      -0.18321829      -3.81879605 
35
Properties=species:S:1:pos:R:3 pbc="F F F"
C      -4.19874157       1.70682906       0.43190995 
O      -3.50058108       2.26804833      -0.65141139 
C      -2.59544802       1.54882935      -1.33197763 
C      -1.93862161       0.36633216      -0.95998557 
N      -2.39186062      -0.29492116       0.20416309 
N      -1.59169181      -0.93143769       0.89091118 
C      -0.25231439      -0.82126083       1.20155494 
C       0.17585014       0.32690188       1.81986600 
C      -0.58210851       1.62510712       1.98612937 
C       1.44410656       0.34132643       2.34700496 
C       2.16081194      -0.81464746       2.23071556 
C       1.72911236      -1.97415062       1.66216508 
C       0.44654477      -2.00848337       1.14334143 
C      -0.02836451      -3.21983088       0.47887915 
O      -0.97945506      -3.15180105      -0.27779607 
O       0.61040150      -4.39154608       0.71030315 
C      -1.02995189      -0.26323043      -1.79891809 
C      -0.67166380       0.29138025      -3.01505795 
C      -1.26466510       1.49956189      -3.33597672 
F      -0.91751578       2.05796560      -4.48822894 
C      -2.20211834       2.14107259      -2.54311741 
C      -2.81486185       3.36638624      -2.91446412 
N      -3.31003780       4.35963199      -3.20985401 
H      -4.91315927       2.45096566       0.79053561 
H      -3.51490111       1.47081155       1.25697563 
H      -4.70336111       0.77817255       0.12580811 
H      -1.57332219       1.30622981       2.23819830 
H      -0.35328506       2.32975448       2.77877629 
H      -0.64603859       2.26614676       1.12381097 
H       1.79824049       1.24747250       2.81638545 
H       3.16349651      -0.80629868       2.63128535 
H       2.37330548      -2.83945946       1.58838870 
H       1.31035548      -4.33232021       1.37163026 
H      -0.61708833      -1.23091142      -1.54088400 
H       0.02667735      -0.20830591      -3.67225443 
35
Properties=species:S:1:pos:R:3 pbc="F F F"
C      -4.26730482       1.68428465       0.41351012 
O      -3.49550289       2.25769344      -0.61767076 
C      -2.56866710       1.53880046      -1.28023270 
C      -1.97745252       0.31868198      -0.88476316 
N      -2.48998751      -0.37963426       0.25097807 
N      -1.71750102      -0.99302812       1.01186772 
C      -0.33613765      -0.83507092       1.20331309 
C       0.13082515       0.34850104       1.76229823 
C      -0.68657752       1.56983381       1.96127397 
C       1.44838823       0.40465428       2.16760379 
C       2.23292281      -0.71793706       2.02546696 
C       1.76767961      -1.90761182       1.52129608 
C       0.43696134      -1.99551602       1.12053177 
C      -0.08313646      -3.24265306       0.52174732 
O      -1.07393876      -3.22867161      -0.18998247 
O       0.58117666      -4.40114264       0.77826115 
C      -1.03739682      -0.31318645      -1.70193734 
C      -0.59586455       0.26625521      -2.88412431 
C      -1.12215090       1.50714183      -3.22102958 
F      -0.69282029       2.08744198      -4.33835267 
C      -2.08964255       2.15758495      -2.45517999 
C      -2.63596927       3.41937292      -2.84158105 
N      -3.07533114       4.43800201      -3.14839862 
H      -4.97761256       2.44390727       0.75010339 
H      -3.63684613       1.39204527       1.26610861 
H      -4.80292082       0.79596935       0.04877577 
H      -1.67209196       1.28355409       2.33573644 
H      -0.32536808       2.31808072       2.67672542 
H      -0.86566186       2.16930011       1.06189855 
H       1.82387934       1.33037120       2.58741599 
H       3.27033374      -0.66288477       2.33311887 
H       2.42401125      -2.76462090       1.41328519 
H       1.31275540      -4.28985796       1.39855022 
H      -0.67813690      -1.30235410      -1.43926709 
H       0.12283170      -0.23698595      -3.51853478 
35
Properties=species:S:1:pos:R:3:forces:R:3 energy=-1449.8516557498212 pbc="F F F"
C      -4.33827445       1.66085525       0.39395378      -0.00024796      -0.00001706       0.00025711 
O      -3.49348416       2.24437548      -0.58149772      -0.00110673      -0.00300253      -0.00310196 
C      -2.54115141       1.52877002      -1.22688094      -0.00284564       0.00359508       0.00092480 
C      -2.01743454       0.27193956      -0.80849638      -0.00361337       0.00290932      -0.00003485 
N      -2.59245942      -0.46035123       0.29822104       0.00398837      -0.00026605       0.00221925 
N      -1.83837061      -1.05255848       1.11957256      -0.00259081       0.00216038      -0.00357479 
C      -0.42244981      -0.85383164       1.20505523       0.00091251      -0.00155768       0.00114046 
C       0.08925769       0.37298739       1.70431116      -0.00159642       0.00042834       0.00107890 
C      -0.80776067       1.55825065       1.93940263       0.00350673      -0.00171303      -0.00129258 
C       1.45485978       0.46764601       1.99034655       0.00273609       0.00287148      -0.00049099 
C       2.31369380      -0.62169655       1.81878292       0.00198551      -0.00111392      -0.00104074 
C       1.80342242      -1.84052306       1.38057453       0.00017785       0.00076577       0.00150455 
C       0.43365577      -1.98322687       1.09328543      -0.00018805      -0.00179246      -0.00204396 
C      -0.13913914      -3.26525192       0.56313289       0.00138437      -0.00085135      -0.00045516 
O      -1.16691380      -3.30523949      -0.09947581       0.00139525      -0.00027992       0.00217933 
O       0.55162044      -4.40877281       0.84502672      -0.00106984       0.00103290      -0.00032054 
C      -1.04457579      -0.36436765      -1.60332704       0.00283070      -0.00228322      -0.00261178 
C      -0.52357516       0.23892771      -2.74964933       0.00113743      -0.00315786       0.00067586 
C      -0.98010440       1.51211839      -3.10409918      -0.00093971      -0.00044000      -0.00034883 
F      -0.47188570       2.11205295      -4.18388583      -0.00060501       0.00023124       0.00023780 
C      -1.97926929       2.17231835      -2.36419227      -0.00142847      -0.00034035       0.00250930 
C      -2.45713925       3.47091867      -2.76690434       0.00148123      -0.00041695       0.00016188 
N      -2.83912848       4.51274843      -3.08463738       0.00071919       0.00199919      -0.00015149 
H      -5.04188512       2.43654500       0.71084167       0.00050273      -0.00051750       0.00032724 
H      -3.76595302       1.31789301       1.26905547      -0.00267256       0.00215221      -0.00097193 
H      -4.90132028       0.81577364      -0.02379286       0.00037823      -0.00258829       0.00030086 
H      -1.75049929       1.25715202       2.39448468      -0.00157362      -0.00103039       0.00109012 
H      -0.32594868       2.28256091       2.59192149      -0.00156354      -0.00031514       0.00136385 
H      -1.05032139       2.06929257       1.00487108       0.00084514       0.00074342       0.00012010 
H       1.85193890       1.41077688       2.35858852       0.00082307       0.00034174      -0.00027344 
H       3.37298564      -0.52131659       2.03531360      -0.00057801      -0.00096371      -0.00168883 
H       2.47740622      -2.68554891       1.24527305      -0.00027926      -0.00079525       0.00167914 
H       1.31235317      -4.25123856       1.41976088       0.00031515       0.00094930       0.00014964 
H      -0.73952056      -1.37188623      -1.33491585      -0.00148556       0.00248888      -0.00079605 
H       0.21511574      -0.26777196      -3.36120870      -0.00073500       0.00077341       0.00127771 
