   31
Geometry Step: 0
    C     -4.45926446     -0.20635107      0.97536337      3.95454880
    O     -3.24348715     -0.16769399      0.24165175      6.29088386
    C     -3.02448968      0.90560692     -0.58343101      3.81779815
    C     -3.93871741      1.92778763     -0.86241101      3.69212346
    F     -5.15377674      1.95766009     -0.29585179      7.26529167
    C     -3.62686179      2.95770331     -1.74969625      4.18624482
    C     -2.39357342      2.97463057     -2.39081089      4.10070809
    C     -1.46985700      1.96503228     -2.12650386      4.16501202
    C     -1.75696584      0.94603436     -1.20186157      3.92834916
    N     -0.78935534     -0.06302810     -0.97997377      5.04461841
    N      0.00000000      0.00000000      0.00000000      5.07177773
    C      0.96367025     -1.00939540      0.21697953      3.95365536
    C      0.57850485     -2.20139370      0.85064824      3.63087300
    F     -0.69105160     -2.36846093      1.25088461      7.25198284
    C      1.47614616     -3.24223536      1.07638295      4.16314285
    C      2.79067917     -3.11998319      0.64476720      4.08995138
    C      3.18883270     -1.96382525     -0.02731888      4.08737578
    C      2.28100130     -0.91116280     -0.26327893      4.13415200
    C      2.80777732      0.25726649     -1.02520252      3.31570570
    O      4.00235271      0.39555655     -1.24143917      6.53464312
    O      1.90126697      1.14409561     -1.48067763      6.50391246
    H     -4.43098328     -1.09157041      1.61822698      0.94260814
    H     -5.31903158     -0.31266164      0.30647151      0.93881503
    H     -4.55876814      0.66893137      1.62544449      0.94074715
    H     -4.36148842      3.73375658     -1.94525769      0.88998449
    H     -2.15241820      3.76398417     -3.09903488      0.89895477
    H     -0.51489203      1.97003357     -2.64917885      0.90194335
    H      1.13721440     -4.14194123      1.58165863      0.88945427
    H      3.50187612     -3.92546807      0.81437034      0.90202254
    H      4.21769559     -1.88805582     -0.38097814      0.87883723
    H      0.97352556      0.98354465     -1.20480564      0.63388237
   31
Geometry Step: 1
    C     -4.45445240     -0.22916526      0.98751955      3.95424780
    O     -3.25018821     -0.16246798      0.25034401      6.25893124
    C     -3.01260962      0.86987773     -0.56627732      3.78646841
    C     -3.93444547      1.94409194     -0.88283012      3.72090797
    F     -5.17917950      1.96279955     -0.28618022      7.28345191
    C     -3.64512690      2.97610847     -1.75268051      4.16765847
    C     -2.38660462      2.97453124     -2.39948219      4.12758846
    C     -1.45096425      1.96239971     -2.14044372      4.13185425
    C     -1.76595411      1.01140141     -1.20114881      3.95461226
    N     -0.80539364     -0.15376098     -1.04221782      5.08193800
    N     -0.01296256      0.08031326      0.07868647      5.10600791
    C      0.95256720     -1.06715250      0.17703873      3.97072501
    C      0.57638692     -2.22406071      0.87086211      3.60764671
    F     -0.69474615     -2.35818712      1.24989838      7.24985115
    C      1.45918271     -3.25424425      1.09285223      4.18263820
    C      2.81465508     -3.11062368      0.63300298      4.08542960
    C      3.19203667     -1.97977889     -0.01429404      4.07429380
    C      2.31736694     -0.92076252     -0.25495436      4.11023734
    C      2.81201736      0.25542696     -1.02189268      3.33534860
    O      4.01437373      0.40150702     -1.24889039      6.51334331
    O      1.87844663      1.17967943     -1.49617407      6.51791821
    H     -4.42496913     -1.09450216      1.61669391      0.93317136
    H     -5.32523990     -0.30790386      0.30551900      0.93948349
    H     -4.56322744      0.67449932      1.62403885      0.94184269
    H     -4.36143320      3.73183688     -1.94321873      0.88083755
    H     -2.15287885      3.76018632     -3.09556466      0.89858090
    H     -0.51554288      1.96965350     -2.64227238      0.89069281
    H      1.13549103     -4.14177902      1.58035459      0.88217405
    H      3.49870084     -3.92335020      0.81367160      0.89918644
    H      4.20779065     -1.87813861     -0.38276620      0.88425180
    H      1.01246406      0.98996218     -1.21405709      0.62868027
   31
Geometry Step: 2
    C     -4.45781323     -0.21323141      0.97902945      3.95445056
    O     -3.24550807     -0.16611792      0.24427317      6.28092779
    C     -3.02090687      0.89483165     -0.57825777      3.80749541
    C     -3.93742908      1.93270471     -0.86856904      3.70122023
    F     -5.16143774      1.95921005     -0.29293502      7.27076574
    C     -3.63237021      2.96325397     -1.75059625      4.17938264
    C     -2.39147176      2.97460061     -2.39342600      4.10940785
    C     -1.46415930      1.96423835     -2.13070787      4.15326111
    C     -1.75967653      0.96574786     -1.20164662      3.93593127
    N     -0.79419220     -0.09039147     -0.99874543      5.05989337
    N     -0.00390927      0.02422100      0.02373039      5.08563789
    C      0.96032178     -1.02681388      0.20493411      3.95762934
    C      0.57786612     -2.20822965      0.85674437      3.62312232
    F     -0.69216581     -2.36536254      1.25058718      7.25110432
    C      1.47103029     -3.24585702      1.08134978      4.16923761
    C      2.79790987     -3.11716053      0.64121933      4.08776305
    C      3.18979896     -1.96863658     -0.02339083      4.08389034
    C      2.29196851     -0.91405790     -0.26076839      4.12559655
    C      2.80905604      0.25671172     -1.02420433      3.32148439
    O      4.00597803      0.39735110     -1.24368633      6.52800199
    O      1.89438477      1.15482703     -1.48535107      6.50850902
    H     -4.42916952     -1.09245457      1.61776464      0.93973053
    H     -5.32090390     -0.31122678      0.30618425      0.93916924
    H     -4.56011298      0.67061056      1.62502057      0.94119851
    H     -4.36147177      3.73317763     -1.94464278      0.88716658
    H     -2.15255712      3.76283881     -3.09798832      0.89886936
    H     -0.51508831      1.96991895     -2.64709598      0.89849234
    H      1.13669466     -4.14189231      1.58126536      0.88718308
    H      3.50091852     -3.92482936      0.81415961      0.90117838
    H      4.21470845     -1.88506497     -0.38151739      0.88051894
    H      0.98526870      0.98548006     -1.20759571      0.63178028
   31
Geometry Step: 3
    C     -4.45820479     -0.21841234      0.98268502      3.95397331
    O     -3.24676081     -0.16708864      0.24981259      6.27970733
    C     -3.02222591      0.89263820     -0.57561487      3.80132400
    C     -3.93779717      1.93261645     -0.87075624      3.70560430
    F     -5.16933440      1.96218574     -0.29102939      7.27382203
    C     -3.63195527      2.96843917     -1.75435613      4.17599812
    C     -2.39051516      2.97412933     -2.39565279      4.10725757
    C     -1.46201771      1.97162126     -2.13897794      4.14620842
    C     -1.75680364      0.97618546     -1.19732137      3.95331598
    N     -0.78046799     -0.11781885     -0.98968603      5.05740427
    N     -0.03225958      0.04650810      0.02109916      5.08336738
    C      0.95909731     -1.04376923      0.18614656      3.97654160
    C      0.57433336     -2.21653777      0.86389310      3.61806091
    F     -0.69544765     -2.36057900      1.25137007      7.24747225
    C      1.47687897     -3.25166550      1.08498721      4.16993396
    C      2.79479280     -3.12062824      0.64375041      4.08093037
    C      3.19807112     -1.97193465     -0.02154917      4.08820613
    C      2.29506514     -0.91727064     -0.25449693      4.11958829
    C      2.81331056      0.26246580     -1.02643954      3.32515093
    O      4.00530162      0.40065090     -1.24706568      6.52144113
    O      1.90176221      1.16790183     -1.49305638      6.50769542
    H     -4.42551126     -1.09727946      1.61906217      0.93870483
    H     -5.32264202     -0.30910799      0.30720310      0.93974045
    H     -4.56242637      0.67123358      1.62344102      0.94177719
    H     -4.36449068      3.73546287     -1.94443272      0.88647846
    H     -2.15229920      3.76222780     -3.09763058      0.90042257
    H     -0.51172710      1.96927068     -2.64541726      0.89757553
    H      1.13493924     -4.14503625      1.58265462      0.88835776
    H      3.50086313     -3.92455935      0.81371767      0.90248985
    H      4.21062851     -1.88020359     -0.38232531      0.87855888
    H      0.99340377      0.98675155     -1.20887725      0.63289078
   31
Geometry Step: 4
    C     -4.45810034     -0.21703034      0.98170990      3.95409553
    O     -3.24642664     -0.16682970      0.24833496      6.28003625
    C     -3.02187406      0.89322330     -0.57631986      3.80295805
    C     -3.93769898      1.93264000     -0.87017281      3.70445447
    F     -5.16722798      1.96139198     -0.29153772      7.27301889
    C     -3.63206595      2.96705603     -1.75335319      4.17688496
    C     -2.39077033      2.97425504     -2.39505880      4.10785810
    C     -1.46258897      1.96965188     -2.13677191      4.14807225
    C     -1.75756998      0.97340124     -1.19847512      3.94864392
    N     -0.78412890     -0.11050264     -0.99210261      5.05815684
    N     -0.02469718      0.04056305      0.02180104      5.08421590
    C      0.95942393     -1.03924642      0.19115811      3.97135749
    C      0.57527572     -2.21432159      0.86198618      3.61938980
    F     -0.69457223     -2.36185500      1.25116123      7.24842916
    C      1.47531884     -3.25011610      1.08401693      4.16975906
    C      2.79562428     -3.11970324      0.64307525      4.08266160
    C      3.19586454     -1.97105490     -0.02204043      4.08707765
    C      2.29423911     -0.91641364     -0.25616983      4.12111455
    C      2.81217567      0.26093091     -1.02584330      3.32417723
    O      4.00548205      0.39977068     -1.24616424      6.52317556
    O      1.89979429      1.16441415     -1.49100100      6.50788980
    H     -4.42648709     -1.09599243      1.61871606      0.93898562
    H     -5.32217838     -0.30967318      0.30693133      0.93959366
    H     -4.56180927      0.67106739      1.62386236      0.94162697
    H     -4.36368539      3.73485329     -1.94448876      0.88666806
    H     -2.15236800      3.76239079     -3.09772601      0.90002070
    H     -0.51262370      1.96944360     -2.64586505      0.89783059
    H      1.13540750     -4.14419761      1.58228403      0.88804904
    H      3.50087790     -3.92463137      0.81383556      0.90213813
    H      4.21171683     -1.88150036     -0.38210979      0.87908465
    H      0.99123375      0.98641238     -1.20853540      0.63257553
   31
Geometry Step: 5
    C     -4.46236351     -0.21396141      0.98243056      3.95437077
    O     -3.24402451     -0.16915381      0.25246862      6.29010435
    C     -3.02430284      0.90557053     -0.58104168      3.81327530
    C     -3.94450641      1.93046959     -0.86593450      3.69635531
    F     -5.16585734      1.96481006     -0.29511668      7.26694300
    C     -3.62603943      2.96127751     -1.75288948      4.17805522
    C     -2.39467893      2.98025379     -2.39884619      4.10318143
    C     -1.46615110      1.97031029     -2.13386833      4.15580070
    C     -1.74963566      0.95793985     -1.19673828      3.93965239
    N     -0.79070974     -0.10632482     -0.98260910      5.04817930
    N     -0.02896417      0.02998856      0.01432306      5.08150511
    C      0.95311194     -1.04049400      0.18597229      3.96915557
    C      0.57628147     -2.21186025      0.85783182      3.62425978
    F     -0.69969698     -2.35935937      1.25467142      7.25144618
    C      1.47972647     -3.25477079      1.08681422      4.16464173
    C      2.79144956     -3.12656311      0.64777669      4.08227793
    C      3.19617575     -1.96981906     -0.02032633      4.08830531
    C      2.28661700     -0.91518457     -0.25408536      4.12649678
    C      2.81118542      0.27020451     -1.02903433      3.32396126
    O      4.00734701      0.40345382     -1.25023842      6.53033731
    O      1.91814353      1.16897448     -1.49480768      6.49328381
    H     -4.42254808     -1.10469400      1.62263979      0.94138567
    H     -5.32191544     -0.30844283      0.31020118      0.93912224
    H     -4.56440793      0.66841976      1.62170967      0.94075745
    H     -4.36904717      3.74049971     -1.94548237      0.89189153
    H     -2.15155850      3.76408841     -3.09982677      0.89736054
    H     -0.50405146      1.96953631     -2.64771583      0.90246310
    H      1.13421223     -4.15155079      1.58635044      0.88862136
    H      3.50225312     -3.92648411      0.81382604      0.90209762
    H      4.21539338     -1.87688546     -0.38433033      0.87793166
    H      0.99412335      0.98814841     -1.20898702      0.63678028
   31
Geometry Step: 6
    C     -4.46022336     -0.21550204      0.98206878      3.95422094
    O     -3.24523041     -0.16798708      0.25039348      6.28507436
    C     -3.02308357      0.89937209     -0.57867128      3.80805284
    C     -3.94108901      1.93155915     -0.86806218      3.70043613
    F     -5.16654542      1.96309415     -0.29332000      7.26999073
    C     -3.62906481      2.96417839     -1.75312227      4.17744137
    C     -2.39271678      2.97724236     -2.39694488      4.10554695
    C     -1.46436288      1.96997976     -2.13532596      4.15186287
    C     -1.75361877      0.96570163     -1.19761019      3.94417742
    N     -0.78740609     -0.10842213     -0.98737494      5.05328235
    N     -0.02682209      0.03529707      0.01807708      5.08290043
    C      0.95628063     -1.03986770      0.18857563      3.97026681
    C      0.57577657     -2.21309587      0.85991735      3.62179454
    F     -0.69712430     -2.36061221      1.25290927      7.24993492
    C      1.47751380     -3.25243409      1.08540995      4.16720842
    C      2.79354531     -3.12311938      0.64541652      4.08246680
    C      3.19601952     -1.97043946     -0.02118683      4.08769542
    C      2.29044338     -0.91580158     -0.25513179      4.12378471
    C      2.81168254      0.26554906     -1.02743240      3.32404158
    O      4.00641078      0.40160485     -1.24819314      6.52672986
    O      1.90893202      1.16668515     -1.49289669      6.50066687
    H     -4.42452551     -1.10032572      1.62067004      0.94018531
    H     -5.32204744     -0.30906048      0.30855968      0.93936792
    H     -4.56310338      0.66974890      1.62279034      0.94120395
    H     -4.36635550      3.73766515     -1.94498357      0.88923959
    H     -2.15196488      3.76323619     -3.09877217      0.89868771
    H     -0.50835482      1.96948977     -2.64678672      0.90012255
    H      1.13481227     -4.14785942      1.58430906      0.88833478
    H      3.50156275     -3.92555402      0.81383082      0.90212000
    H      4.21354771     -1.87920219     -0.38321560      0.87851629
    H      0.99267274      0.98727691     -1.20876030      0.63464561
   31
Geometry Step: 7
    C     -4.46128376     -0.21730456      0.98418095      3.95466136
    O     -3.24408408     -0.16614753      0.25148540      6.28616113
    C     -3.02219426      0.90102863     -0.57848689      3.80997770
    C     -3.94361901      1.93219177     -0.86770327      3.69960257
    F     -5.16731552      1.96566698     -0.29512908      7.26871843
    C     -3.63111564      2.96452566     -1.75297867      4.17889230
    C     -2.39284527      2.97785603     -2.39831471      4.10638073
    C     -1.46351693      1.96805841     -2.13333410      4.15311123
    C     -1.75280549      0.96200821     -1.19904972      3.93941427
    N     -0.79731786     -0.10842103     -0.98845957      5.05325345
    N     -0.02364226      0.02915737      0.02050439      5.08405508
    C      0.95088143     -1.04134169      0.18506106      3.96574444
    C      0.57534864     -2.21480991      0.85861228      3.62292199
    F     -0.69845692     -2.35860844      1.25486089      7.25103455
    C      1.47525255     -3.25458782      1.08836694      4.16706728
    C      2.79474289     -3.12493358      0.64617560      4.08393968
    C      3.19354025     -1.96989401     -0.01890665      4.08617021
    C      2.28917042     -0.91454251     -0.25537044      4.12679063
    C      2.81395721      0.26927500     -1.02839217      3.32483508
    O      4.00822851      0.40353526     -1.25073409      6.52582105
    O      1.91297742      1.17101928     -1.49455782      6.49877200
    H     -4.42202724     -1.10459533      1.62221051      0.93971940
    H     -5.32272502     -0.30825390      0.31034528      0.93910512
    H     -4.56534695      0.66888588      1.62211509      0.94083909
    H     -4.36774285      3.73909791     -1.94503374      0.88923673
    H     -2.15137403      3.76535622     -3.10097039      0.89835650
    H     -0.50448311      1.96982950     -2.64686180      0.90099686
    H      1.13426321     -4.15273484      1.58712000      0.88800278
    H      3.50270314     -3.92750071      0.81403757      0.90154286
    H      4.21546323     -1.87569703     -0.38445858      0.87967377
    H      1.00092832      0.99027797     -1.21119717      0.63520174
   31
Geometry Step: 8
    C     -4.46299952     -0.22022109      0.98759852      3.95539855
    O     -3.24222927     -0.16317106      0.25325216      6.28791077
    C     -3.02075532      0.90370898     -0.57818855      3.81307442
    C     -3.94771264      1.93321538     -0.86712255      3.69823244
    F     -5.16856158      1.96982992     -0.29805622      7.26664480
    C     -3.63443396      2.96508757     -1.75274633      4.18125745
    C     -2.39305319      2.97884897     -2.40053114      4.10769449
    C     -1.46214816      1.96494960     -2.13011120      4.15513245
    C     -1.75148956      0.95603212     -1.20137892      3.93181763
    N     -0.81335543     -0.10841926     -0.99021455      5.05313857
    N     -0.01849719      0.01922314      0.02443186      5.08578109
    C      0.94214535     -1.04372664      0.17937437      3.95855761
    C      0.57465623     -2.21758329      0.85650063      3.62473772
    F     -0.70061315     -2.35536628      1.25801868      7.25281869
    C      1.47159377     -3.25807264      1.09315146      4.16682750
    C      2.79668061     -3.12786901      0.64740382      4.08638433
    C      3.18952872     -1.96901145     -0.01521724      4.08367436
    C      2.28711074     -0.91250530     -0.25575659      4.13168085
    C      2.81763772      0.27530369     -1.02994510      3.32610315
    O      4.01116966      0.40665873     -1.25484545      6.52433314
    O      1.91952300      1.17803205     -1.49724558      6.49582887
    H     -4.41798496     -1.11150372      1.62470306      0.93894945
    H     -5.32382138     -0.30694882      0.31323443      0.93867840
    H     -4.56897712      0.66748948      1.62102251      0.94024213
    H     -4.36998764      3.74141616     -1.94511493      0.88923315
    H     -2.15041802      3.76878650     -3.10452719      0.89780673
    H     -0.49821857      1.97037920     -2.64698327      0.90241429
    H      1.13337483     -4.16062344      1.59166820      0.88745269
    H      3.50454834     -3.93065053      0.81437210      0.90061001
    H      4.21856259     -1.87002556     -0.38646977      0.88156139
    H      1.01428612      0.99513381     -1.21514012      0.63602287
   31
Geometry Step: 9
    C     -4.46144764     -0.21758313      0.98450738      3.95473066
    O     -3.24390692     -0.16586323      0.25165415      6.28632369
    C     -3.02205682      0.90128464     -0.57845840      3.81027184
    C     -3.94401001      1.93228954     -0.86764781      3.69947218
    F     -5.16743454      1.96606460     -0.29540866      7.26852441
    C     -3.63143259      2.96457933     -1.75295648      4.17911460
    C     -2.39286513      2.97795087     -2.39852641      4.10650780
    C     -1.46338620      1.96776148     -2.13302627      4.15330611
    C     -1.75267980      0.96143741     -1.19927219      3.93868171
    N     -0.79884966     -0.10842086     -0.98862720      5.05324151
    N     -0.02315084      0.02820852      0.02087952      5.08423618
    C      0.95004702     -1.04156948      0.18451790      3.96505961
    C      0.57528250     -2.21507481      0.85841059      3.62309775
    F     -0.69866287     -2.35829877      1.25516250      7.25120091
    C      1.47490308     -3.25492067      1.08882393      4.16704712
    C      2.79492797     -3.12521395      0.64629291      4.08417117
    C      3.19315710     -1.96980971     -0.01855426      4.08592895
    C      2.28897370     -0.91434793     -0.25540732      4.12725209
    C      2.81430875      0.26985082     -1.02854049      3.32495591
    O      4.00850943      0.40383359     -1.25112678      6.52568107
    O      1.91360261      1.17168909     -1.49481453      6.49847998
    H     -4.42164115     -1.10525518      1.62244858      0.93964528
    H     -5.32282974     -0.30812924      0.31062123      0.93906621
    H     -4.56569368      0.66875251      1.62201074      0.94078382
    H     -4.36795726      3.73931933     -1.94504150      0.88923726
    H     -2.15128272      3.76568386     -3.10131011      0.89830441
    H     -0.50388477      1.96988200     -2.64687340      0.90113362
    H      1.13417836     -4.15348831      1.58755442      0.88795007
    H      3.50287938     -3.92780156      0.81406952      0.90145339
    H      4.21575926     -1.87515533     -0.38465068      0.87985481
    H      1.00220416      0.99074177     -1.21157378      0.63528589
   31
Geometry Step: 10
    C     -4.46100804     -0.22175064      0.98751412      3.95469540
    O     -3.24337177     -0.16251292      0.25313322      6.28590902
    C     -3.02183597      0.90137249     -0.57667393      3.80875793
    C     -3.94405222      1.93351570     -0.86893769      3.70099635
    F     -5.17033946      1.96925037     -0.29668950      7.26984310
    C     -3.63439893      2.96710350     -1.75433931      4.17967296
    C     -2.39234798      2.97583996     -2.39835253      4.10640559
    C     -1.46041324      1.96723789     -2.13333451      4.15318884
    C     -1.75577827      0.96113679     -1.20112399      3.94008328
    N     -0.80428119     -0.11060823     -0.98308803      5.05246288
    N     -0.02588670      0.02116810      0.01613012      5.08195096
    C      0.94664437     -1.04486752      0.17939689      3.96484659
    C      0.57274457     -2.21942380      0.85809274      3.62318966
    F     -0.69915598     -2.35563334      1.25749254      7.25037682
    C      1.47316878     -3.25764139      1.09202218      4.16742643
    C      2.79446840     -3.12631200      0.64740949      4.08432087
    C      3.19207309     -1.96887684     -0.01646480      4.08616973
    C      2.28730326     -0.91214683     -0.25616037      4.12871916
    C      2.81811299      0.27280981     -1.02906471      3.32641958
    O      4.01162020      0.40595094     -1.25423448      6.52337902
    O      1.91834916      1.17848342     -1.49730790      6.49848233
    H     -4.41844990     -1.10956574      1.62357004      0.93854203
    H     -5.32408844     -0.30739065      0.31280849      0.93923316
    H     -4.56895813      0.66797258      1.62190980      0.94096501
    H     -4.36898695      3.74022749     -1.94486198      0.88787385
    H     -2.15058242      3.76813584     -3.10390854      0.89982565
    H     -0.50101070      1.97026561     -2.64550994      0.90032229
    H      1.13354621     -4.15919825      1.59112369      0.88813532
    H      3.50461625     -3.93062148      0.81441048      0.90172448
    H      4.21534875     -1.87052971     -0.38508467      0.88026538
    H      1.01251124      0.99500605     -1.21473980      0.63581633
   31
Geometry Step: 11
    C     -4.46029676     -0.22849382      0.99237913      3.95470144
    O     -3.24250590     -0.15709200      0.25552643      6.28523568
    C     -3.02147862      0.90151463     -0.57378661      3.80626273
    C     -3.94412051      1.93549967     -0.87102476      3.70348235
    F     -5.17503971      1.97440506     -0.29876193      7.27196399
    C     -3.63919858      2.97118769     -1.75657678      4.18051834
    C     -2.39151121      2.97242444     -2.39807119      4.10619924
    C     -1.45560291      1.96639071     -2.13383325      4.15296557
    C     -1.76079171      0.96065037     -1.20412028      3.94245745
    N     -0.81306960     -0.11414746     -0.97412548      5.05115923
    N     -0.03031341      0.00977645      0.00844544      5.07792117
    C      0.94113877     -1.05020387      0.17111091      3.96459524
    C      0.56863812     -2.22646062      0.85757844      3.62337637
    F     -0.69995384     -2.35132059      1.26126262      7.24908407
    C      1.47036263     -3.26204362      1.09719706      4.16805854
    C      2.79372481     -3.12808868      0.64921614      4.08462722
    C      3.19031913     -1.96736742     -0.01308399      4.08652472
    C      2.28460043     -0.90858538     -0.25737882      4.13117562
    C      2.82426838      0.27759754     -1.02991292      3.32877024
    O      4.01665353      0.40937688     -1.25926285      6.51968473
    O      1.92602926      1.18947688     -1.50134225      6.49868639
    H     -4.41328635     -1.11654037      1.62538459      0.93673535
    H     -5.32612506     -0.30619558      0.31634755      0.93945568
    H     -4.57424013      0.66671063      1.62174647      0.94121361
    H     -4.37065302      3.74169691     -1.94457150      0.88569236
    H     -2.14944931      3.77210324     -3.10811290      0.90230866
    H     -0.49636036      1.97088630     -2.64330381      0.89899728
    H      1.13252336     -4.16843712      1.59689890      0.88843062
    H      3.50742656     -3.93518419      0.81496216      0.90216710
    H      4.21468453     -1.86304529     -0.38578688      0.88093382
    H      1.02918845      1.00190581     -1.21986254      0.63661521
   31
Geometry Step: 12
    C     -4.46083184     -0.22342102      0.98871925      3.95468747
    O     -3.24315728     -0.16117009      0.25372605      6.28574654
    C     -3.02174745      0.90140770     -0.57595870      3.80813917
    C     -3.94406913      1.93400716     -0.86945468      3.70161143
    F     -5.17150377      1.97052726     -0.29720287      7.27037066
    C     -3.63558787      2.96811521     -1.75489356      4.17989596
    C     -2.39214070      2.97499389     -2.39828284      4.10635521
    C     -1.45922166      1.96702803     -2.13345805      4.15313410
    C     -1.75702017      0.96101630     -1.20186621      3.94066157
    N     -0.80645820     -0.11148494     -0.98086789      5.05214019
    N     -0.02698325      0.01834623      0.01422652      5.08100076
    C      0.94528056     -1.04618941      0.17734434      3.96477975
    C      0.57172735     -2.22116691      0.85796534      3.62322508
    F     -0.69935362     -2.35456501      1.25842644      7.25005250
    C      1.47247366     -3.25873188      1.09330407      4.16756972
    C      2.79428420     -3.12675211      0.64785702      4.08438101
    C      3.19163861     -1.96850294     -0.01562733      4.08626056
    C      2.28663373     -0.91126461     -0.25646219      4.12932737
    C      2.81963777      0.27399579     -1.02927483      3.32700875
    O      4.01286702      0.40679959     -1.25548008      6.52246012
    O      1.92025163      1.18120665     -1.49830726      6.49850732
    H     -4.41717082     -1.11129345      1.62401953      0.93809552
    H     -5.32459294     -0.30709461      0.31368517      0.93929380
    H     -4.57026655      0.66765998      1.62186934      0.94103215
    H     -4.36939966      3.74059148     -1.94479002      0.88732942
    H     -2.15030173      3.76911862     -3.10495002      0.90043979
    H     -0.49985875      1.97041937     -2.64496345      0.89999484
    H      1.13329284     -4.16148684      1.59255429      0.88820970
    H      3.50531240     -3.93175172      0.81454713      0.90183470
    H      4.21518421     -1.86867572     -0.38525862      0.88043343
    H      1.01664241      0.99671522     -1.21600877      0.63602140
   31
Geometry Step: 13
    C     -4.45914371     -0.22704131      0.99115950      3.95341503
    O     -3.24387227     -0.15863515      0.25865580      6.28537158
    C     -3.02670791      0.90478960     -0.57449487      3.80737004
    C     -3.94371468      1.93656639     -0.87195251      3.70200712
    F     -5.17547534      1.97448038     -0.29855115      7.27230981
    C     -3.63337979      2.96866180     -1.75838327      4.17772927
    C     -2.39160177      2.97447812     -2.39953680      4.10472616
    C     -1.45690658      1.96907561     -2.13600874      4.15301543
    C     -1.76202134      0.96371866     -1.20166396      3.94234840
    N     -0.81660452     -0.12043182     -0.98087021      5.05180742
    N     -0.02992890      0.01441585      0.01117674      5.08365652
    C      0.94584035     -1.05691410      0.17023958      3.96517595
    C      0.56926128     -2.22647280      0.85681670      3.62287598
    F     -0.70114962     -2.35142609      1.26249502      7.24928163
    C      1.47245006     -3.26408767      1.09715749      4.16724264
    C      2.79151241     -3.12720784      0.64980670      4.08289622
    C      3.19216011     -1.96635688     -0.01386375      4.08827025
    C      2.28511183     -0.90901437     -0.25781242      4.12867927
    C      2.82458676      0.27773823     -1.03072703      3.32813675
    O      4.01811371      0.40857390     -1.25906911      6.52235034