   35
Geometry Step: 0
    C      6.15502489     -1.65959948      3.33738119      3.95846521
    O      5.79739402     -0.52412715      2.55733679      6.30003419
    C      4.64222243     -0.60005742      1.83378210      3.69141069
    C      3.80451926     -1.70556503      1.73894812      4.18688978
    C      2.63767283     -1.65030487      0.95361790      3.96789903
    C      1.85652239     -2.84930879      0.84294501      3.81904765
    N      1.27125838     -3.85184024      0.81291840      5.29385575
    C      2.26865086     -0.46976012      0.27994112      3.88139728
    N      1.08160982     -0.42828031     -0.48604121      5.04115890
    N      0.00000000      0.00000000      0.00000000      5.03582838
    C     -0.08069859      0.45914677      1.33155663      3.84187994
    C      0.22947652      1.79750845      1.61854405      4.13182806
    C      0.18439829      2.28679893      2.92672894      4.06028965
    C     -0.20395720      1.45053835      3.97011293      4.09667155
    C     -0.57545029      0.13452011      3.70058688      4.07073927
    C     -0.53442730     -0.35045116      2.38372815      4.10954305
    C     -1.02164574     -1.71220254      2.10927133      3.32530056
    O     -1.75578346     -2.05799862      1.20700568      6.55030662
    O     -0.49329330     -2.58778217      2.98447095      6.50071121
    C      3.16403430      0.61571620      0.32731325      4.10726371
    C      2.92924827      1.82463816     -0.49691715      3.32339928
    O      2.34161454      1.89446251     -1.55688513      6.55473996
    O      3.45051564      2.92698126      0.07479731      6.49877902
    C      4.32660021      0.55082496      1.11520997      4.16333577
    H      6.35238894     -2.52742449      2.69963700      0.94565734
    H      5.38595379     -1.88376236      4.08394239      0.94579185
    H      7.07959464     -1.42057577      3.87152574      0.93508497
    H      4.03944767     -2.63359846      2.25490014      0.89947839
    H      0.50443239      2.46863591      0.80788866      0.90829747
    H      0.44396697      3.32397483      3.12703506      0.91404940
    H     -0.24367579      1.83068746      4.98841786      0.91445260
    H     -0.91759824     -0.50612319      4.51065923      0.90465353
    H     -0.74622253     -3.46209584      2.60929344      0.61763129
    H      3.24471324      3.64176176     -0.56541138      0.62403088
    H      5.00922804      1.39841679      1.15797613      0.88009776
   35
Geometry Step: 1
    C      6.17303737     -1.64412965      3.34159215      3.94585030
    O      5.79038464     -0.55133076      2.56783165      6.26468628
    C      4.67217256     -0.57220116      1.84389664      3.69642170
    C      3.79794913     -1.74610432      1.74652007      4.22011043
    C      2.64689356     -1.66027566      0.95949362      3.93401864
    C      1.82252767     -2.89359887      0.84841557      3.83309078
    N      1.28896426     -3.81917948      0.81143920      5.26408105
    C      2.30097616     -0.48357009      0.32378869      3.93071840
    N      1.04558921     -0.42336109     -0.52784724      5.03232833
    N     -0.01610884     -0.02740511     -0.04921419      5.03870768
    C     -0.05955982      0.51259350      1.38088849      3.87467914
    C      0.24053421      1.82451238      1.61747379      4.10632426
    C      0.18062553      2.28557184      2.90954229      4.05966667
    C     -0.20633761      1.44726337      3.98633599      4.09950313
    C     -0.57104637      0.15185328      3.69915474      4.06622831
    C     -0.55571826     -0.33408359      2.38936844      4.07533125
    C     -0.98171749     -1.68278124      2.12960891      3.35113759
    O     -1.78581965     -2.08001968      1.17152780      6.57237770
    O     -0.51528846     -2.68065312      2.97203580      6.50875423
    C      3.17725743      0.61387831      0.32325073      4.05032732
    C      2.93980136      1.79664852     -0.44056263      3.35589158
    O      2.31167862      1.89377900     -1.60651760      6.58097448
    O      3.45313401      2.99917011      0.04047516      6.50871854
    C      4.31199801      0.57858682      1.08973380      4.18090466
    H      6.34625972     -2.53632125      2.69730128      0.95202707
    H      5.37800494     -1.89075887      4.08333985      0.95353495
    H      7.07878757     -1.41653782      3.86891663      0.92800371
    H      4.03813167     -2.63228467      2.25250706      0.88641188
    H      0.50890607      2.46567919      0.80727002      0.89705493
    H      0.44367031      3.32251771      3.12507843      0.91765385
    H     -0.24267403      1.82951933      4.98712985      0.90460883
    H     -0.91705215     -0.50867787      4.50469055      0.91049473
    H     -0.73088440     -3.45434019      2.64125882      0.60675978
    H      3.26000419      3.64338456     -0.53795414      0.61137299
    H      5.00265480      1.39641100      1.15444731      0.88124483
   35
Geometry Step: 2
    C      6.15862219     -1.65650998      3.33822217      3.95585294
    O      5.79599417     -0.52956003      2.55943273      6.29321805
    C      4.64820382     -0.59449421      1.83580209      3.69196705
    C      3.80320713     -1.71366119      1.74046032      4.19359206
    C      2.63951432     -1.65229615      0.95479135      3.96118791
    C      1.84973325     -2.85815403      0.84403754      3.82136110
    N      1.27479445     -3.84531751      0.81262299      5.28710704
    C      2.27510660     -0.47251813      0.28869799      3.89106688
    N      1.07441609     -0.42729789     -0.49439036      5.03997449
    N     -0.00321712     -0.00547312     -0.00982864      5.03716162
    C     -0.07647694      0.46982070      1.34140877      3.84826775
    C      0.23168487      1.80290145      1.61833031      4.12629022
    C      0.18364483      2.28655387      2.92329657      4.06055839
    C     -0.20443259      1.44988430      3.97335286      4.09690675
    C     -0.57457078      0.13798175      3.70030087      4.07016117
    C     -0.53867935     -0.34718236      2.38485458      4.10205643
    C     -1.01367160     -1.70632676      2.11333298      3.32936358
    O     -1.76178203     -2.06239648      1.19992034      6.55718827
    O     -0.49768599     -2.60632957      2.98198750      6.50246661
    C      3.16667511      0.61534916      0.32650192      4.09477246
    C      2.93135585      1.81904830     -0.48566250      3.32870681
    O      2.33563599      1.89432600     -1.56679731      6.56295356
    O      3.45103856      2.94139821      0.06794278      6.50071372
    C      4.32368398      0.55636932      1.11012209      4.16766718
    H      6.35116487     -2.52920127      2.69917053      0.94697335
    H      5.38436631     -1.88515965      4.08382206      0.94739788
    H      7.07943346     -1.41976935      3.87100467      0.93363869
    H      4.03918485     -2.63333608      2.25442221      0.89681391
    H      0.50532584      2.46804542      0.80776511      0.90592783
    H      0.44390773      3.32368383      3.12664430      0.91471725
    H     -0.24347573      1.83045417      4.98816063      0.91240286
    H     -0.91748918     -0.50663339      4.50946722      0.90577596
    H     -0.74315933     -3.46054695      2.61567730      0.61464958
    H      3.24776702      3.64208585     -0.55992785      0.62079535
    H      5.00791529      1.39801621      1.15727139      0.88034530
   35
Geometry Step: 3
    C      6.16214123     -1.65443072      3.33941972      3.95238514
    O      5.79511632     -0.53620290      2.56295581      6.29079853
    C      4.65062779     -0.59086073      1.83636153      3.69171271
    C      3.80628373     -1.71807860      1.74259583      4.19668513
    C      2.64084301     -1.66184443      0.95796791      3.95686120
    C      1.85313023     -2.84733858      0.84710295      3.81855904
    N      1.26776596     -3.85646680      0.81128616      5.29115822
    C      2.27895076     -0.47520038      0.29853939      3.89866051
    N      1.06990131     -0.42808329     -0.50739034      5.04265598
    N     -0.01241149     -0.01039398     -0.01896660      5.04101208
    C     -0.07023799      0.48032574      1.34924318      3.85457168
    C      0.23604674      1.81380560      1.61803224      4.12322688
    C      0.18193585      2.28754920      2.92271434      4.06028173
    C     -0.20392156      1.45169271      3.97510226      4.09607412
    C     -0.57434239      0.14171270      3.70240539      4.06927973
    C     -0.54413752     -0.33910380      2.38714099      4.10061334
    C     -1.01155228     -1.70971192      2.10741645      3.33043431
    O     -1.75999374     -2.06352278      1.20181901      6.54714435
    O     -0.50300515     -2.62237086      2.98042269      6.51007897
    C      3.16929103      0.61397470      0.32514970      4.09054166
    C      2.92512431      1.81953875     -0.48669197      3.32953334
    O      2.33572002      1.89197592     -1.56388993      6.55231889
    O      3.45254241      2.95311604      0.06173254      6.50983580
    C      4.32439735      0.56208982      1.10684835      4.16826420
    H      6.34892064     -2.53160811      2.69917351      0.94890664
    H      5.38254546     -1.88758050      4.08294341      0.94939017
    H      7.08066944     -1.41756792      3.87076405      0.93292764
    H      4.03930916     -2.63577100      2.25499982      0.89562600
    H      0.50761234      2.46811242      0.80642637      0.90390058
    H      0.44368031      3.32296927      3.12585255      0.91574999
    H     -0.24309790      1.83042298      4.98881243      0.91187174
    H     -0.91702440     -0.50705712      4.50675423      0.90572953
    H     -0.74172917     -3.46986217      2.62161330      0.61382322
    H      3.25068860      3.65062584     -0.55788003      0.62030404
    H      5.00594551      1.39889936      1.15544026      0.87908289
   35
Geometry Step: 4
    C      6.16137645     -1.65488260      3.33915946      3.95313499
    O      5.79530710     -0.53475922      2.56219015      6.29132835
    C      4.65010099     -0.59165038      1.83623995      3.69175992
    C      3.80561510     -1.71711857      1.74213172      4.19602196
    C      2.64055425     -1.65976932      0.95727755      3.95781510
    C      1.85239197     -2.84968908      0.84643675      3.81911767
    N      1.26929344     -3.85404376      0.81157669      5.29028985
    C      2.27811532     -0.47461746      0.29640058      3.89700923
    N      1.07088250     -0.42791260     -0.50456509      5.04211399
    N     -0.01041330     -0.00932454     -0.01698067      5.04021308
    C     -0.07159388      0.47804270      1.34754054      3.85319602
    C      0.23509879      1.81143583      1.61809702      4.12387348
    C      0.18230726      2.28733288      2.92284087      4.06035680
    C     -0.20403262      1.45129969      3.97472207      4.09624716
    C     -0.57439203      0.14090186      3.70194802      4.06947297
    C     -0.54295131     -0.34085950      2.38664409      4.10091722
    C     -1.01201287     -1.70897623      2.10870228      3.33018412
    O     -1.76038239     -2.06327800      1.20140637      6.54933003
    O     -0.50184914     -2.61888464      2.98076277      6.50842296
    C      3.16872252      0.61427340      0.32544358      4.09144568
    C      2.92647859      1.81943216     -0.48646824      3.32934164
    O      2.33570176      1.89248665     -1.56452178      6.55463055
    O      3.45221559      2.95056943      0.06308220      6.50785289
    C      4.32424231      0.56084660      1.10755982      4.16814081
    H      6.34940837     -2.53108504      2.69917286      0.94848663
    H      5.38294118     -1.88705438      4.08313436      0.94895704
    H      7.08040083     -1.41804635      3.87081634      0.93307959
    H      4.03928215     -2.63524183      2.25487429      0.89588623
    H      0.50711542      2.46809786      0.80671732      0.90434085
    H      0.44372974      3.32312456      3.12602462      0.91552840
    H     -0.24318001      1.83042976      4.98867078      0.91198848
    H     -0.91712541     -0.50696503      4.50734384      0.90574100
    H     -0.74203998     -3.46783771      2.62032324      0.61400436
    H      3.25005366      3.64876986     -0.55832508      0.62041543
    H      5.00637360      1.39870743      1.15583822      0.87935553
   35
Geometry Step: 5
    C      6.16256380     -1.65587322      3.34029910      3.95151266
    O      5.79500896     -0.53832216      2.56472569      6.29392108
    C      4.64875207     -0.59153005      1.83552225      3.69025291
    C      3.81103252     -1.71662209      1.74386612      4.19472293
    C      2.64401599     -1.66498801      0.96092142      3.95736050
    C      1.84581128     -2.85610036      0.84882345      3.81929361
    N      1.26972028     -3.85207300      0.81066493      5.28897430
    C      2.27698227     -0.47620143      0.30169210      3.90058096
    N      1.06763246     -0.42874714     -0.51277455      5.04405607
    N     -0.01641929     -0.01225867     -0.02209497      5.04222823
    C     -0.06687051      0.48307945      1.34872515      3.85634293
    C      0.23905818      1.82030294      1.61806292      4.12374562
    C      0.18089441      2.29021282      2.92522336      4.06020350
    C     -0.20302099      1.45441762      3.97479996      4.09482717
    C     -0.57498647      0.14330055      3.70491928      4.06959992
    C     -0.54712641     -0.33428302      2.38789263      4.10287885
    C     -1.01122792     -1.71517455      2.10278897      3.32902759
    O     -1.75697246     -2.06310617      1.20450070      6.54142191
    O     -0.50520550     -2.62448561      2.98113932      6.51140468
    C      3.16972233      0.61315326      0.32406833      4.09349631
    C      2.92007173      1.82414077     -0.49040574      3.32743210
    O      2.33680979      1.88959621     -1.55873467      6.54510013
    O      3.45388027      2.95429305      0.06042970      6.51214653
    C      4.32743046      0.56291856      1.10757292      4.16799005
    H      6.34726762     -2.53288039      2.69987981      0.94936760
    H      5.38202532     -1.88941328      4.08186709      0.94977145
    H      7.08266667     -1.41541162      3.87107471      0.93338472
    H      4.04006019     -2.63910783      2.25634776      0.89647495
    H      0.51017007      2.46982046      0.80411077      0.90370058
    H      0.44345831      3.32277336      3.12548882      0.91569383
    H     -0.24270961      1.83079917      4.98998533      0.91273985
    H     -0.91664078     -0.50727759      4.50479317      0.90498194
    H     -0.74295716     -3.48439866      2.62295913      0.61526502
    H      3.25159309      3.66192761     -0.56063522      0.62179770
    H      5.00524497      1.40127346      1.15371774      0.87830184
   35
Geometry Step: 6
    C      6.16448499     -1.65747606      3.34214307      3.94889521
    O      5.79452655     -0.54408713      2.56882829      6.29811548
    C      4.64656948     -0.59133535      1.83436099      3.68788903
    C      3.81979810     -1.71581877      1.74667243      4.19255536
    C      2.64961721     -1.67343202      0.96681732      3.95656189
    C      1.83516350     -2.86647403      0.85268521      3.81982621
    N      1.27041091     -3.84888424      0.80918968      5.28685033
    C      2.27514896     -0.47876437      0.31025397      3.90641834
    N      1.06237380     -0.43009745     -0.52605773      5.04697483
    N     -0.02613720     -0.01700619     -0.03037008      5.04540311
    C     -0.05922794      0.49122907      1.35064188      3.86142890
    C      0.24546462      1.83465023      1.61800775      4.12356835
    C      0.17860836      2.29487266      2.92907830      4.05993929
    C     -0.20138413      1.45946253      3.97492599      4.09253346
    C     -0.57594830      0.14718172      3.70972687      4.06972413
    C     -0.55388186     -0.32364206      2.38991281      4.10625701
    C     -1.00995784     -1.72520365      2.09322104      3.32757491
    O     -1.75145509     -2.06282815      1.20950742      6.52807271
    O     -0.51063620     -2.63354816      2.98174861      6.51625238
    C      3.17134006      0.61134082      0.32184314      4.09704844
    C      2.90970520      1.83175945     -0.49677674      3.32484225
    O      2.33860263      1.88491936     -1.54937093      6.52897371
    O      3.45657380      2.96031800      0.05613788      6.51912188
    C      4.33258898      0.56627107      1.10759410      4.16769151
    H      6.34380381     -2.53578533      2.70102367      0.95080475
    H      5.38054341     -1.89323005      4.07981661      0.95109209
    H      7.08633288     -1.41114853      3.87149275      0.93387848
    H      4.04131909     -2.64536315      2.25873188      0.89737260
    H      0.51511259      2.47260768      0.79989329      0.90266215
    H      0.44301912      3.32220510      3.12462189      0.91591396
    H     -0.24194849      1.83139690      4.99211232      0.91395322
    H     -0.91585662     -0.50778333      4.50066610      0.90374422
    H     -0.74444117     -3.51119483      2.62722408      0.61735903
    H      3.25408394      3.68321730     -0.56437311      0.62410058
    H      5.00341881      1.40542539      1.15028674      0.87660019
   35
Geometry Step: 7
    C      6.16276270     -1.65603916      3.34049000      3.95124093
    O      5.79495902     -0.53891901      2.56515043      6.29435445
    C      4.64852611     -0.59150989      1.83540203      3.69000391
    C      3.81194002     -1.71653893      1.74415665      4.19450293
    C      2.64459588     -1.66586221      0.96153182      3.95728502
    C      1.84470892     -2.85717434      0.84922326      3.81933386
    N      1.26979178     -3.85174287      0.81051220      5.28875494
    C      2.27679247     -0.47646677      0.30257851      3.90118287
    N      1.06708803     -0.42888694     -0.51414975      5.04437110
    N     -0.01742538     -0.01275018     -0.02295169      5.04255941
    C     -0.06607928      0.48392317      1.34892359      3.85686901
    C      0.23972144      1.82178830      1.61805721      4.12372771
    C      0.18065773      2.29069525      2.92562246      4.06017879
    C     -0.20285153      1.45493992      3.97481301      4.09458938
    C     -0.57508605      0.14370237      3.70541700      4.06961737
    C     -0.54782580     -0.33318137      2.38810178      4.10321455
    C     -1.01109643     -1.71621286      2.10179841      3.32885141
    O     -1.75640125     -2.06307739      1.20501904      6.54007089
    O     -0.50576774     -2.62542385      2.98120240      6.51190644
    C      3.16988981      0.61296562      0.32383796      4.09384667
    C      2.91899849      1.82492952     -0.49106532      3.32713249
    O      2.33699541      1.88911201     -1.55776525      6.54347213
    O      3.45415913      2.95491681      0.05998537      6.51286746
    C      4.32796452      0.56326564      1.10757511      4.16796355
    H      6.34690902     -2.53318113      2.69999823      0.94951636
    H      5.38187190     -1.88980843      4.08165481      0.94990857
    H      7.08304623     -1.41497026      3.87111799      0.93343578
    H      4.04019052     -2.63975544      2.25659459      0.89657142
    H      0.51068176      2.47010902      0.80367414      0.90359338
    H      0.44341284      3.32271453      3.12539907      0.91571994
    H     -0.24263081      1.83086106      4.99020554      0.91286609
    H     -0.91655959     -0.50732995      4.50436589      0.90485405
    H     -0.74311080     -3.48717285      2.62340068      0.61547944
    H      3.25185097      3.66413172     -0.56102220      0.62203344
    H      5.00505591      1.40170331      1.15336253      0.87812427
   35
Geometry Step: 8
    C      6.16258257     -1.66052932      3.34243084      3.95245838
    O      5.79405101     -0.53996601      2.56662706      6.29658225
    C      4.64833731     -0.59194578      1.83527362      3.68751118
    C      3.81747100     -1.71712472      1.74580252      4.19370353
    C      2.64723679     -1.66945961      0.96512973      3.95749423
    C      1.84165410     -2.85840160      0.85378341      3.82031570
    N      1.26521761     -3.85680666      0.80875118      5.28841174
    C      2.27149686     -0.47878695      0.30521840      3.90355635
    N      1.06098593     -0.42957561     -0.51756825      5.04121160
    N     -0.01829371     -0.01496775     -0.02652255      5.03955076
    C     -0.06199438      0.48695660      1.34485153      3.85843857
    C      0.24376592      1.82737304      1.61859644      4.12376090
    C      0.17981672      2.29714057      2.92869230      4.06077259
    C     -0.20199568      1.45902018      3.97595700      4.09352913
    C     -0.57626897      0.14695282      3.70749043      4.07053984
    C     -0.55206603     -0.32910501      2.38713961      4.10258892
    C     -1.00372363     -1.71846377      2.10366552      3.32901995
    O     -1.75787064     -2.06577683      1.20014842      6.54717288
    O     -0.50973905     -2.63230614      2.98136044      6.50678420
    C      3.17024122      0.61271191      0.32284229      4.09363177
    C      2.91828860      1.83023904     -0.48449784      3.32720150
    O      2.33113246      1.88603319     -1.56127050      6.55113285
    O      3.45541397      2.95960269      0.05544525      6.50609803
    C      4.33067829      0.56210342      1.10819250      4.16802978
    H      6.34419359     -2.53544094      2.70175172      0.94820549
    H      5.38147168     -1.89337539      4.07988886      0.94869300
    H      7.08666021     -1.41117206      3.87170385      0.93348429
    H      4.04240051     -2.64507766      2.25915240      0.89701007
    H      0.51641488      2.47558428      0.79824353      0.90422954
    H      0.44324223      3.32439679      3.12574503      0.91442535
    H     -0.24166645      1.83208660      4.99256320      0.91311946
    H     -0.91623072     -0.50820588      4.50212368      0.90429377
    H     -0.74460754     -3.51056104      2.62732901      0.61588342
    H      3.25437546      3.68291561     -0.56403805      0.62244595
    H      5.00506381      1.40768646      1.15021493      0.87871304
   35
Geometry Step: 9
    C      6.16229111     -1.66779455      3.34557117      3.95445429
    O      5.79258182     -0.54166010      2.56901630      6.30015899
    C      4.64803182     -0.59265107      1.83506585      3.68354198
    C      3.82642031     -1.71807256      1.74846559      4.19240978
    C      2.65150988     -1.67528032      0.97095128      3.95779648
    C      1.83671130     -2.86038736      0.86116189      3.82195099
    N      1.25781646     -3.86500004      0.80590179      5.28783045
    C      2.26292838     -0.48254107      0.30948985      3.90751695
    N      1.05111252     -0.43068990     -0.52309950      5.03607803
    N     -0.01969870     -0.01855586     -0.03230034      5.03472210
    C     -0.05538487      0.49186479      1.33826280      3.86102783
    C      0.25031004      1.83640933      1.61946894      4.12381420
    C      0.17845593      2.30756931      2.93365941      4.06171688
    C     -0.20061088      1.46562218      3.97780803      4.09181913
    C     -0.57818297      0.15221216      3.71084529      4.07199453
    C     -0.55892688     -0.32250933      2.38558278      4.10147844
    C     -0.99179420     -1.72210581      2.10668657      3.32973158
    O     -1.76024817     -2.07014462      1.19226760      6.55797386
    O     -0.51616476     -2.64344193      2.98161616      6.49891490
    C      3.17080982      0.61230142      0.32123125      4.09309935
    C      2.91713997      1.83883001     -0.47387144      3.32773355
    O      2.32164602      1.88105154     -1.56694212      6.56291122
    O      3.45744435      2.96718460      0.04809916      6.49556921
    C      4.33506926      0.56022292      1.10919147      4.16811791
    H      6.33979993     -2.53909739      2.70458893      0.94612068
    H      5.38082412     -1.89914687      4.07703150      0.94674727
    H      7.09250775     -1.40502646      3.87265180      0.93353239
    H      4.04597635     -2.65368920      2.26329104      0.89768892
    H      0.52569125      2.48444344      0.78945662      0.90523083
    H      0.44296619      3.32711874      3.12630480      0.91235037
    H     -0.24010607      1.83406956      4.99637797      0.91353174
    H     -0.91569860     -0.50962317      4.49849569      0.90338213
    H     -0.74702932     -3.54840394      2.63368518      0.61641109
    H      3.25846017      3.71330857     -0.56891780      0.62300227
    H      5.00507660      1.41736741      1.14512200      0.87963971
   35
Geometry Step: 10
    C      6.16256770     -1.66090008      3.34259109      3.95255947
    O      5.79397603     -0.54005246      2.56674899      6.29676739
    C      4.64832172     -0.59198178      1.83526302      3.68730696
    C      3.81792770     -1.71717309      1.74593842      4.19364022
    C      2.64745486     -1.66975665      0.96542681      3.95750887
    C      1.84140186     -2.85850294      0.85415995      3.82040014
    N      1.26483992     -3.85722478      0.80860577      5.28838131
    C      2.27105959     -0.47897853      0.30543638      3.90375622
    N      1.06048207     -0.42963247     -0.51785052      5.04095784
    N     -0.01836541     -0.01515086     -0.02681740      5.03930161
    C     -0.06165709      0.48720708      1.34451529      3.85856543
    C      0.24409988      1.82783418      1.61864097      4.12375778
    C      0.17974728      2.29767277      2.92894578      4.06082258
    C     -0.20192501      1.45935709      3.97605147      4.09344389
    C     -0.57636664      0.14722121      3.70766163      4.07061790
    C     -0.55241615     -0.32876843      2.38706016      4.10253248
    C     -1.00311485     -1.71864963      2.10381969      3.32904391
    O     -1.75799197     -2.06599973      1.19974625      6.54774445
    O     -0.51006696     -2.63287442      2.98137349      6.50637103
    C      3.17027024      0.61269097      0.32276007      4.09360538
    C      2.91822998      1.83067745     -0.48395556      3.32721502
    O      2.33064835      1.88577897     -1.56155993      6.55175422
    O      3.45551759      2.95998961      0.05507036      6.50554699
    C      4.33090237      0.56200746      1.10824348      4.16803239
    H      6.34396937     -2.53562754      2.70189651      0.94809747
    H      5.38143863     -1.89366992      4.07974304      0.94859275
    H      7.08695862     -1.41085844      3.87175223      0.93348756
    H      4.04258299     -2.64551712      2.25936360      0.89704593
    H      0.51688827      2.47603638      0.79779512      0.90428187
    H      0.44322815      3.32453569      3.12577360      0.91431887
    H     -0.24158682      1.83218779      4.99275787      0.91314119
    H     -0.91620357     -0.50827821      4.50193853      0.90424770
    H     -0.74473112     -3.51249223      2.62765337      0.61591396
    H      3.25458391      3.68446661     -0.56428707      0.62247774
    H      5.00506446      1.40818050      1.14995503      0.87876149
   35
Geometry Step: 11
    C      6.16364031     -1.66522699      3.34535810      3.95524578
    O      5.79297151     -0.53930202      2.56775217      6.29339625
    C      4.65377534     -0.59231822      1.83779401      3.68624168
    C      3.81893520     -1.72434069      1.74696822      4.19862639
    C      2.64624962     -1.66861608      0.96677255      3.95658666
    C      1.83881227     -2.86272324      0.86102095      3.82203217
    N      1.25962145     -3.86098177      0.80646942      5.28783938
    C      2.26676054     -0.48006141      0.30523150      3.90318311
    N      1.05954703     -0.43413954     -0.51694960      5.04099507
    N     -0.01994532     -0.01205325     -0.02495771      5.03920540
    C     -0.06099901      0.48821492      1.33987628      3.85544435
    C      0.24766730      1.82815372      1.61785185      4.12354007
    C      0.17960697      2.30345969      2.92807704      4.06078610
    C     -0.20230095      1.46328362      3.97940832      4.09510858
    C     -0.57747238      0.15185547      3.70400577      4.06910320
    C     -0.55334573     -0.32788868      2.38362812      4.10384226
    C     -1.00171195     -1.72162363      2.10128364      3.32847708
    O     -1.75341331     -2.06695943      1.19843147      6.54276354
    O     -0.51601311     -2.65107470      2.97776357      6.51311095
    C      3.16890312      0.61164417      0.32491677      4.09315802
    C      2.91554828      1.83528408     -0.48334129      3.32737989
    O      2.32534018      1.88308642     -1.55905638      6.54925154
    O      3.45455223      2.97273738      0.04374390      6.50834617
    C      4.32998418      0.56103670      1.10601386      4.16938990
    H      6.34124397     -2.53932505      2.70415210      0.94623422
    H      5.38085171     -1.89890254      4.07884907      0.94669559
    H      7.08935672     -1.40736002      3.87155853      0.93237042
    H      4.04659139     -2.64987250      2.26214817      0.89612580
    H      0.52506106      2.48437733      0.79212063      0.90615071
    H      0.44387212      3.33197942      3.12818775      0.91424679
    H     -0.23995587      1.83469079      4.99628742      0.91204792
    H     -0.91625902     -0.50974006      4.50106507      0.90569318
    H     -0.74460283     -3.53010060      2.63652805      0.61520926
    H      3.25964368      3.70103000     -0.56277446      0.62179008
    H      5.00521921      1.41553118      1.14603264      0.88038249
   35
Geometry Step: 12
    C      6.16537585     -1.67222808      3.34983521      3.95955951
    O      5.79134615     -0.53808778      2.56937535      6.28773257
    C      4.66259948     -0.59286261      1.84188923      3.68454173
    C      3.82056538     -1.73593811      1.74863447      4.20685730