   35
Geometry Step: 0
    C      2.42936464      2.17080153     -1.71766442      3.94599894
    O      3.25949513      1.02759622     -1.52862491      6.33320520
    C      2.70622557     -0.11454877     -2.06055470      3.72376406
    C      3.27179280     -0.65955401     -3.22775303      4.15732943
    C      4.31657913      0.02638075     -4.01424673      3.30623738
    O      5.26336022     -0.51826063     -4.55103105      6.56887118
    O      4.06132065      1.33316682     -4.19110499      6.49234949
    C      2.88785930     -1.93330086     -3.66983524      4.08483386
    C      1.95681165     -2.66874349     -2.94368981      4.19663213
    C      1.40432729     -2.12531439     -1.78646715      3.63378974
    F      0.56204534     -2.89263829     -1.07762685      7.25148490
    C      1.72683262     -0.83221402     -1.34134645      4.02244335
    N      1.20970384     -0.32479390     -0.12783945      5.03899013
    N      0.00000000      0.00000000      0.00000000      5.07030050
    C     -0.91458848     -0.12290320     -1.06184541      3.83798575
    C     -1.79790529     -1.20883744     -1.09486024      4.11942310
    C     -2.74075825     -1.33515614     -2.11990195      3.91665786
    C     -3.61781870     -2.46831717     -2.15326393      3.83200481
    N     -4.32728840     -3.38560723     -2.18528852      5.27074750
    C     -2.82325566     -0.35339725     -3.11044681      4.10008665
    C     -1.97331817      0.75774863     -3.06458934      4.06865825
    C     -2.10432147      1.78686172     -4.12230815      3.32118226
    O     -2.91541958      1.77075523     -5.02811305      6.56033342
    O     -1.20523756      2.77746647     -3.99776252      6.49944125
    C     -1.03482247      0.87556989     -2.03237026      4.13378010
    H      1.88361162      2.14219035     -2.66723008      0.94825653
    H      1.73572097      2.27486005     -0.87905312      0.95237054
    H      3.07472482      3.05442172     -1.72750235      0.93624179
    H      4.81431719      1.64863971     -4.73371466      0.62488650
    H      3.33907028     -2.36401776     -4.56264826      0.88089124
    H      1.67625346     -3.67135353     -3.25391674      0.88034592
    H     -1.73032819     -1.96614488     -0.31391733      0.88885271
    H     -3.55572381     -0.44454843     -3.91289396      0.88163091
    H     -1.40498846      3.37643318     -4.74917633      0.62156447
    H     -0.39972045      1.75308657     -1.96853683      0.89842815
   35
Geometry Step: 1
    C      2.45214765      2.20183210     -1.70506592      3.93233464
    O      3.23952465      1.04490167     -1.55205962      6.33488419
    C      2.73178462     -0.14611024     -2.04593977      3.70871341
    C      3.27342691     -0.69239902     -3.22620903      4.13763656
    C      4.27143454      0.02277402     -3.99325410      3.33418603
    O      5.30232789     -0.53177860     -4.57276445      6.59226867
    O      4.11471486      1.38187298     -4.22430811      6.50283922
    C      2.87945643     -1.95204490     -3.66657658      4.06845418
    C      1.96024856     -2.68931931     -2.95779757      4.20506310
    C      1.39509623     -2.13453833     -1.79155642      3.61118709
    F      0.55758733     -2.88425994     -1.07110932      7.24630586
    C      1.71732242     -0.85623605     -1.39297432      4.07112256
    N      1.21738233     -0.28502726     -0.05544686      5.03105469
    N      0.02227042     -0.00205180      0.05180131      5.07902988
    C     -0.94779588     -0.13844247     -1.11559641      3.86551505
    C     -1.79660392     -1.23001220     -1.06646708      4.10323868
    C     -2.73399268     -1.32671371     -2.11586618      3.92236628
    C     -3.65588802     -2.51766041     -2.15415891      3.85111124
    N     -4.30423541     -3.35563378     -2.18414992      5.24764774
    C     -2.83599830     -0.35625717     -3.12543337      4.08703353
    C     -1.99489574      0.73848718     -3.06314640      4.04156177
    C     -2.08270046      1.75144287     -4.06684898      3.35586789
    O     -2.94754483      1.77493170     -5.06810607      6.58519082
    O     -1.20097972      2.84029878     -4.04795004      6.51708641
    C     -1.02241952      0.89457242     -2.03230356      4.13058320
    H      1.88182802      2.13537594     -2.66711093      0.96253112
    H      1.71942004      2.27570089     -0.87366844      0.96050692
    H      3.07620196      3.05600730     -1.72606459      0.92227132
    H      4.79137288      1.66505887     -4.72470523      0.61266575
    H      3.33929540     -2.35690079     -4.55781640      0.87724428
    H      1.67578578     -3.66963448     -3.25258689      0.87549174
    H     -1.73130885     -1.96480449     -0.32039529      0.87120209
    H     -3.54949778     -0.44044593     -3.91005269      0.86700634
    H     -1.38389647      3.37826397     -4.72721201      0.60815728
    H     -0.39694973      1.75507765     -1.97422449      0.88064046
   35
Geometry Step: 2
    C      2.43413822      2.17730317     -1.71502473      3.94330447
    O      3.25531085      1.03122212     -1.53353504      6.33331200
    C      2.71158079     -0.12116164     -2.05749253      3.72021835
    C      3.27213518     -0.66643582     -3.22742952      4.15312005
    C      4.30712027      0.02562506     -4.00984828      3.31127965
    O      5.27152487     -0.52109296     -4.55558471      6.57575766
    O      4.07250800      1.34337191     -4.19806183      6.49468590
    C      2.88609870     -1.93722818     -3.66915248      4.08067464
    C      1.95753177     -2.67305461     -2.94664572      4.19870743
    C      1.40239317     -2.12724702     -1.78753347      3.62858917
    F      0.56111128     -2.89088283     -1.07626127      7.25024964
    C      1.72484001     -0.83724720     -1.35216371      4.03234766
    N      1.21131266     -0.31646185     -0.11267150      5.03861996
    N      0.00466618     -0.00042990      0.01085360      5.07242373
    C     -0.92154621     -0.12615904     -1.07310751      3.84402283
    C     -1.79763262     -1.21327405     -1.08891120      4.11596499
    C     -2.73934071     -1.33338725     -2.11905636      3.91843854
    C     -3.62579512     -2.47865574     -2.15345145      3.83549889
    N     -4.32245825     -3.37932708     -2.18504995      5.26552847
    C     -2.82592554     -0.35399647     -3.11358685      4.09718098
    C     -1.97783918      0.75371290     -3.06428701      4.06232618
    C     -2.09979136      1.77944064     -4.11068815      3.32727434
    O     -2.92215058      1.77163030     -5.03649253      6.56862789
    O     -1.20434544      2.79063132     -4.00827799      6.50336277
    C     -1.03222376      0.87955137     -2.03235629      4.13325307
    H      1.88323791      2.14076257     -2.66720512      0.95128856
    H      1.73230554      2.27503622     -0.87792491      0.95392782
    H      3.07503431      3.05475393     -1.72720111      0.93322822
    H      4.80950981      1.65207991     -4.73182697      0.62165292
    H      3.33911745     -2.36252659     -4.56163587      0.87996982
    H      1.67615547     -3.67099335     -3.25363811      0.87926806
    H     -1.73053366     -1.96586404     -0.31527462      0.88497704
    H     -3.55441931     -0.44368886     -3.91229865      0.87829900
    H     -1.40056919      3.37681678     -4.74457429      0.61802640
    H     -0.39913992      1.75350375     -1.96972853      0.89459288
   35
Geometry Step: 3
    C      2.43744412      2.18536097     -1.71209867      3.94009402
    O      3.24964984      1.03530715     -1.54178801      6.33478751
    C      2.72017411     -0.13083120     -2.05356729      3.71493294
    C      3.27292350     -0.67531804     -3.22596024      4.15457269
    C      4.30688122      0.02316154     -4.01311662      3.31275931
    O      5.27147526     -0.51892498     -4.55555779      6.56929129
    O      4.08250106      1.35176281     -4.20185714      6.50123347
    C      2.88404988     -1.94474618     -3.66913970      4.07869920
    C      1.95707231     -2.67959909     -2.94902049      4.19990683
    C      1.39952761     -2.13312819     -1.79136088      3.62356351
    F      0.55913119     -2.88798921     -1.07394942      7.24898614
    C      1.71942943     -0.83986929     -1.36090478      4.04324524
    N      1.21818761     -0.30668088     -0.09425957      5.03820027
    N      0.00496949     -0.00007552      0.02433709      5.07525758
    C     -0.92388876     -0.13033577     -1.08224850      3.84880146
    C     -1.80066395     -1.21903117     -1.08507668      4.11411976
    C     -2.74109832     -1.33646888     -2.11706397      3.91877371
    C     -3.61822533     -2.46875691     -2.15289999      3.83447481
    N     -4.33138216     -3.39084405     -2.18539885      5.26888003
    C     -2.82968466     -0.35749356     -3.11560339      4.09748358
    C     -1.98135065      0.75024361     -3.06185502      4.06141609
    C     -2.10252092      1.77538077     -4.11020788      3.32880228
    O     -2.92028522      1.77228177     -5.03497901      6.56128211
    O     -1.20394395      2.80002404     -4.01591632      6.51276961
    C     -1.03191421      0.88313879     -2.03478919      4.12942028
    H      1.88339804      2.13905564     -2.66571957      0.95330945
    H      1.72714518      2.27569689     -0.87655643      0.95554491
    H      3.07738001      3.05748191     -1.72647632      0.93113674
    H      4.80988909      1.66078253     -4.73453434      0.62101201
    H      3.33930348     -2.36029182     -4.56036167      0.87995251
    H      1.67561752     -3.67218432     -3.25388112      0.87878126
    H     -1.73053296     -1.96735226     -0.31533425      0.88252058
    H     -3.55348532     -0.44243642     -3.91270512      0.87690776
    H     -1.39599545      3.38369000     -4.74551628      0.61721132
    H     -0.39725649      1.75531676     -1.97175723      0.89186971
   35
Geometry Step: 4
    C      2.43676988      2.18371759     -1.71269544      3.94075287
    O      3.25080440      1.03447401     -1.54010482      6.33446866
    C      2.71842150     -0.12885910     -2.05436784      3.71597799
    C      3.27276272     -0.67350651     -3.22625990      4.15430146
    C      4.30692997      0.02366398     -4.01245004      3.31245051
    O      5.27148538     -0.51936714     -4.55556328      6.57061241
    O      4.08046298      1.35005149     -4.20108309      6.49989628
    C      2.88446774     -1.94321288     -3.66914230      4.07907845
    C      1.95716602     -2.67826434     -2.94853615      4.19967752
    C      1.40011204     -2.13192873     -1.79058028      3.62456374
    F      0.55953503     -2.88857936     -1.07442092      7.24923891
    C      1.72053292     -0.83933452     -1.35912204      4.04101442
    N      1.21678547     -0.30867571     -0.09801468      5.03834673
    N      0.00490763     -0.00014779      0.02158714      5.07468631
    C     -0.92341100     -0.12948393     -1.08038420      3.84783525
    C     -1.80004571     -1.21785701     -1.08585873      4.11449620
    C     -2.74073985     -1.33584039     -2.11747031      3.91873367
    C     -3.61976919     -2.47077577     -2.15301246      3.83464512
    N     -4.32956213     -3.38849517     -2.18532769      5.26820557
    C     -2.82891799     -0.35678033     -3.11519212      4.09741994
    C     -1.98063449      0.75095117     -3.06235102      4.06160867
    C     -2.10196422      1.77620878     -4.11030583      3.32848134
    O     -2.92066566      1.77214891     -5.03528769      6.56278649
    O     -1.20402583      2.79810840     -4.01435849      6.51085256
    C     -1.03197734      0.88240714     -2.03429300      4.13019544
    H      1.88336538      2.13940377     -2.66602254      0.95290301
    H      1.72819763      2.27556215     -0.87683553      0.95521128
    H      3.07690161      3.05692554     -1.72662414      0.93156214
    H      4.80981174      1.65900763     -4.73398217      0.62114312
    H      3.33926554     -2.36074760     -4.56062155      0.87995603
    H      1.67572724     -3.67194142     -3.25383156      0.87887960
    H     -1.73053310     -1.96704873     -0.31532209      0.88301973
    H     -3.55367581     -0.44269185     -3.91262222      0.87719205
    H     -1.39692827      3.38228821     -4.74532416      0.61738116
    H     -0.39764062      1.75494699     -1.97134348      0.89242539
   35
Geometry Step: 5
    C      2.43539894      2.18864188     -1.71132251      3.93928332
    O      3.24713711      1.03641773     -1.54809739      6.33625382
    C      2.72532086     -0.13663234     -2.05094815      3.71262018
    C      3.27504717     -0.68024235     -3.22560621      4.15862618
    C      4.31147351      0.02311361     -4.01920755      3.31035638
    O      5.26755696     -0.51575589     -4.55357616      6.56271186
    O      4.08412143      1.35223290     -4.19927580      6.50261151
    C      2.88352851     -1.95008181     -3.66935264      4.07900711
    C      1.95529899     -2.68467856     -2.94918481      4.20019640
    C      1.39747647     -2.13732696     -1.79427587      3.62209268
    F      0.55687653     -2.88624363     -1.07211837      7.24886520
    C      1.71458841     -0.83811818     -1.36017669      4.04766082
    N      1.22121219     -0.30155399     -0.08606115      5.03775081
    N      0.00428308     -0.00007327      0.03053493      5.07493581
    C     -0.91939478     -0.13337347     -1.08136600      3.84988583
    C     -1.80346944     -1.22029147     -1.08620431      4.11456489
    C     -2.74201511     -1.33786142     -2.11585944      3.91737621
    C     -3.62448012     -2.47664675     -2.15293254      3.83508323
    N     -4.32845058     -3.38705397     -2.18523273      5.26811820
    C     -2.83063207     -0.36086091     -3.11397829      4.09915013
    C     -1.98267958      0.74992712     -3.06052394      4.06458829
    C     -2.10609273      1.77813159     -4.11642275      3.32570681
    O     -2.91550528      1.77183427     -5.02927336      6.55359484
    O     -1.20432470      2.79873366     -4.01503724      6.51523670
    C     -1.03364453      0.88290241     -2.03689252      4.12778123
    H      1.88408792      2.13866292     -2.66329582      0.95231175
    H      1.72370399      2.27666979     -0.87601883      0.95532670
    H      3.08086976      3.06161024     -1.72561315      0.93191885
    H      4.81619404      1.67004466     -4.74090503      0.62282795
    H      3.33973568     -2.35922442     -4.56031385      0.88055150
    H      1.67465942     -3.67541547     -3.25487939      0.87879883
    H     -1.73036423     -1.97036204     -0.31346519      0.88379759
    H     -3.55407451     -0.44174399     -3.91442963      0.87837069
    H     -1.39417009      3.39358900     -4.75220633      0.61913591
    H     -0.39535167      1.75735656     -1.97360595      0.89290177
   35
Geometry Step: 6
    C      2.43318072      2.19660957     -1.70910105      3.93690314
    O      3.24120331      1.03956275     -1.56102963      6.33936660
    C      2.73648425     -0.14920970     -2.04541498      3.70741385
    C      3.27874348     -0.69114117     -3.22454853      4.16559294
    C      4.31882512      0.02222310     -4.03014143      3.30749158
    O      5.26120064     -0.50991275     -4.55036092      6.54903959
    O      4.09004094      1.35576249     -4.19635154      6.50697756
    C      2.88200881     -1.96119597     -3.66969297      4.07902670
    C      1.95227807     -2.69505698     -2.95023437      4.20092614
    C      1.39321204     -2.14606148     -1.80025545      3.61820496
    F      0.55257498     -2.88246434     -1.06839276      7.24830550
    C      1.70497000     -0.83615009     -1.36188315      4.05844628
    N      1.22837479     -0.29003082     -0.06671993      5.03656402
    N      0.00327254      0.00004731      0.04501277      5.07542084
    C     -0.91289641     -0.13966688     -1.08295458      3.85318931
    C     -1.80900915     -1.22423052     -1.08676347      4.11467379
    C     -2.74407852     -1.34113151     -2.11325299      3.91508847
    C     -3.63210255     -2.48614620     -2.15280323      3.83598146
    N     -4.32665206     -3.38472207     -2.18507906      5.26787511
    C     -2.83340551     -0.36746342     -3.11201429      4.10190356
    C     -1.98598860      0.74827016     -3.05756766      4.06971487
    C     -2.11277278      1.78124276     -4.12632013      3.32192113
    O     -2.90715560      1.77132519     -5.01954195      6.53737826
    O     -1.20480827      2.79974536     -4.01613549      6.52235006
    C     -1.03634208      0.88370377     -2.04109862      4.12376753
    H      1.88525702      2.13746419     -2.65888388      0.95123199
    H      1.71643314      2.27846200     -0.87469738      0.95549928
    H      3.08729036      3.06919026     -1.72397733      0.93249180
    H      4.82652082      1.68790295     -4.75210644      0.62574004
    H      3.34049640     -2.35675987     -4.55981599      0.88152691
    H      1.67293166     -3.68103661     -3.25657482      0.87868245
    H     -1.73009098     -1.97572308     -0.31046068      0.88505348
    H     -3.55471962     -0.44021031     -3.91735408      0.88036415
    H     -1.38970727      3.41187408     -4.76334192      0.62221060
    H     -0.39164808      1.76125532     -1.97726670      0.89367609
   35
Geometry Step: 7
    C      2.43523260      2.18923938     -1.71115592      3.93910367
    O      3.24669214      1.03665357     -1.54906716      6.33647764
    C      2.72615799     -0.13757551     -2.05053323      3.71221400
    C      3.27532435     -0.68105964     -3.22552690      4.15915258
    C      4.31202481      0.02304683     -4.02002747      3.31012042
    O      5.26708030     -0.51531772     -4.55333505      6.56172434
    O      4.08456533      1.35249758     -4.19905651      6.50293911
    C      2.88341455     -1.95091525     -3.66937816      4.07900214
    C      1.95507245     -2.68545683     -2.94926352      4.20026163
    C      1.39715669     -2.13798196     -1.79472427      3.62179976
    F      0.55655396     -2.88596022     -1.07183899      7.24882211
    C      1.71386714     -0.83797059     -1.36030465      4.04846346
    N      1.22174931     -0.30068988     -0.08461077      5.03766603
    N      0.00420730     -0.00006423      0.03162062      5.07496852
    C     -0.91890747     -0.13384541     -1.08148513      3.85013359
    C     -1.80388486     -1.22058686     -1.08624624      4.11457266
    C     -2.74216985     -1.33810664     -2.11566398      3.91720702
    C     -3.62505172     -2.47735911     -2.15292284      3.83514237
    N     -4.32831571     -3.38687910     -2.18522120      5.26810530
    C     -2.83084005     -0.36135602     -3.11383102      4.09935037
    C     -1.98292772      0.74980286     -3.06030225      4.06496331
    C     -2.10659366      1.77836489     -4.11716495      3.32539422
    O     -2.91487914      1.77179610     -5.02854361      6.55243456
    O     -1.20436096      2.79880953     -4.01511960      6.51577055
    C     -1.03384681      0.88296250     -2.03720793      4.12749073
    H      1.88417559      2.13857302     -2.66296497      0.95223672
    H      1.72315876      2.27680419     -0.87591974      0.95534048
    H      3.08135123      3.06217866     -1.72549048      0.93196224
    H      4.81696844      1.67138384     -4.74174501      0.62303902
    H      3.33979273     -2.35903961     -4.56027652      0.88062481
    H      1.67452986     -3.67583700     -3.25500653      0.87879002
    H     -1.73034374     -1.97076406     -0.31323989      0.88389240
    H     -3.55412289     -0.44162898     -3.91464893      0.87851706
    H     -1.39383543      3.39496019     -4.75304138      0.61935668
    H     -0.39507394      1.75764893     -1.97388047      0.89296050
   35
Geometry Step: 8
    C      2.42999765      2.19271279     -1.71060604      3.93923442
    O      3.24514295      1.03694910     -1.55897847      6.33752021
    C      2.73071774     -0.14537162     -2.04584739      3.71264629
    C      3.28108599     -0.68839442     -3.22706848      4.15854366
    C      4.30790470      0.02753310     -4.02222237      3.30953802
    O      5.27208255     -0.51652318     -4.55718862      6.56999972
    O      4.09092023      1.35538231     -4.19759245      6.49679521
    C      2.88378538     -1.95712167     -3.66825293      4.07707023
    C      1.95181125     -2.69394603     -2.94944575      4.20159452
    C      1.39343537     -2.13877842     -1.79510595      3.62110854
    F      0.55164536     -2.88426858     -1.06894335      7.24902712
    C      1.70828270     -0.83559697     -1.35584103      4.05202843
    N      1.22019955     -0.29375653     -0.07679620      5.03590737
    N      0.00652022     -0.00105489      0.03856655      5.07156239
    C     -0.91069402     -0.13856415     -1.07680246      3.85104564
    C     -1.80430891     -1.21995333     -1.08663802      4.11382821
    C     -2.74750950     -1.34369199     -2.11542337      3.91751829
    C     -3.62745385     -2.48015517     -2.15227823      3.83336424
    N     -4.33080757     -3.39008143     -2.18533704      5.26819041
    C     -2.83083918     -0.36498515     -3.11052522      4.09627554
    C     -1.98666588      0.75061132     -3.06153183      4.06426990
    C     -2.10119838      1.78223962     -4.11336894      3.32476652
    O     -2.91916313      1.77045060     -5.03254491      6.56247969
    O     -1.20549291      2.80097735     -4.01804917      6.50783226
    C     -1.03422269      0.87984635     -2.03629891      4.12849634
    H      1.88475204      2.13932150     -2.65897173      0.95039393
    H      1.71787047      2.27893571     -0.87537931      0.95389210
    H      3.08718558      3.06920312     -1.72358400      0.93313152
    H      4.82400786      1.68612042     -4.74980429      0.62339771
    H      3.34104119     -2.35877010     -4.56203783      0.88056162
    H      1.67202789     -3.68443085     -3.25757874      0.87755507
    H     -1.73041870     -1.97622505     -0.31010321      0.88599552
    H     -3.55555000     -0.44092092     -3.91775852      0.87944723
    H     -1.38925904      3.40868585     -4.76005625      0.61958615
    H     -0.39291131      1.75994876     -1.97773023      0.89539597
   35
Geometry Step: 9
    C      2.43003441      2.19268840     -1.71060991      3.93923328
    O      3.24515383      1.03694702     -1.55890886      6.33751167
    C      2.73068572     -0.14531687     -2.04588029      3.71264174
    C      3.28104553     -0.68834291     -3.22705766      4.15854861
    C      4.30793363      0.02750160     -4.02220695      3.30953998
    O      5.27204742     -0.51651471     -4.55716155      6.56994231
    O      4.09087560      1.35536205     -4.19760273      6.49683860
    C      2.88378278     -1.95707808     -3.66826083      4.07708762
    C      1.95183415     -2.69388642     -2.94944447      4.20158513
    C      1.39346150     -2.13877283     -1.79510327      3.62111318
    F      0.55167984     -2.88428046     -1.06896368      7.24902526
    C      1.70832192     -0.83561364     -1.35587237      4.05200153
    N      1.22021044     -0.29380522     -0.07685108      5.03591930
    N      0.00650397     -0.00104793      0.03851778      5.07158839
    C     -0.91075170     -0.13853101     -1.07683534      3.85104019
    C     -1.80430593     -1.21995778     -1.08663527      4.11383294
    C     -2.74747201     -1.34365276     -2.11542505      3.91751644
    C     -3.62743698     -2.48013554     -2.15228276      3.83337583
    N     -4.33079007     -3.39005894     -2.18533623      5.26819139
    C     -2.83083919     -0.36495966     -3.11054843      4.09630129
    C     -1.98663962      0.75060564     -3.06152320      4.06427420
    C     -2.10123627      1.78221241     -4.11339560      3.32476855
    O     -2.91913305      1.77046005     -5.03251681      6.56241023
    O     -1.20548496      2.80096212     -4.01802859      6.50788835
    C     -1.03422005      0.87986824     -2.03630529      4.12848476
    H      1.88474799      2.13931625     -2.65899977      0.95040739
    H      1.71790761      2.27892074     -0.87538311      0.95390262
    H      3.08714461      3.06915379     -1.72359739      0.93312324
    H      4.82395843      1.68601693     -4.74974770      0.62339547
    H      3.34103242     -2.35877199     -4.56202546      0.88056238
    H      1.67204546     -3.68437050     -3.25756068      0.87756380
    H     -1.73041817     -1.97618670     -0.31012524      0.88598015
    H     -3.55553997     -0.44092589     -3.91773668      0.87944107
    H     -1.38929118      3.40858946     -4.76000698      0.61958507
    H     -0.39292650      1.75993261     -1.97770320      0.89537803
   35
Geometry Step: 10
    C      2.42806012      2.19655446     -1.70913258      3.93925164
    O      3.24617236      1.03658967     -1.56869183      6.33870073
    C      2.73085099     -0.15179025     -2.04347707      3.71292207
    C      3.28538409     -0.69321552     -3.22511721      4.15897033
    C      4.31119416      0.02768793     -4.02696052      3.30939047
    O      5.27294280     -0.51489565     -4.56069606      6.56488748
    O      4.10508718      1.36309990     -4.20159748      6.50211588
    C      2.88573757     -1.96352090     -3.66618025      4.07699691
    C      1.94846231     -2.69927034     -2.94719627      4.20143104
    C      1.38867190     -2.13470351     -1.79089249      3.62265209
    F      0.54488456     -2.88300324     -1.06646148      7.24941671
    C      1.70807325     -0.83490495     -1.34999887      4.04784853
    N      1.22207584     -0.29088708     -0.07568867      5.03781766
    N      0.00272906     -0.00048202      0.04417721      5.07169067
    C     -0.90523785     -0.14176165     -1.07251167      3.84815928
    C     -1.80146111     -1.22132962     -1.08306137      4.11436961
    C     -2.75026146     -1.34757652     -2.11366930      3.91875533
    C     -3.62971749     -2.48268939     -2.15102304      3.83294232
    N     -4.33666230     -3.39764364     -2.18563245      5.26867733
    C     -2.83350709     -0.36575585     -3.11194614      4.09615899
    C     -1.98695962      0.75155911     -3.05938982      4.06614507
    C     -2.10236958      1.78629648     -4.11604613      3.32488645
    O     -2.91973567      1.76898498     -5.03248797      6.55816987
    O     -1.20727258      2.81143489     -4.02894597      6.51181306
    C     -1.03109721      0.87436238     -2.03098854      4.12842907
    H      1.88270637      2.14249657     -2.65699562      0.95000398
    H      1.71240333      2.28174268     -0.87494098      0.95352858
    H      3.09031980      3.07341469     -1.72062397      0.93274919
    H      4.82431243      1.69915137     -4.75262007      0.62255828
    H      3.34264276     -2.36068757     -4.56585798      0.88112045
    H      1.66784745     -3.69791663     -3.26123751      0.87773662
    H     -1.73120274     -1.98067089     -0.30887378      0.88596946
    H     -3.55585113     -0.44070260     -3.91931051      0.87879735
    H     -1.38220810      3.41743052     -4.75995238      0.61864806
    H     -0.39309279      1.75892965     -1.98309587      0.89628946
   35
Geometry Step: 11
    C      2.42812851      2.19642053     -1.70918376      3.93924689
    O      3.24613708      1.03660205     -1.56835293      6.33866020
    C      2.73084527     -0.15156600     -2.04356032      3.71290554
    C      3.28523379     -0.69304672     -3.22518443      4.15895368
    C      4.31108121      0.02768147     -4.02679585      3.30938921
    O      5.27291178     -0.51495174     -4.56057361      6.56506279
    O      4.10459487      1.36283185     -4.20145910      6.50193551
    C      2.88566985     -1.96329771     -3.66625233      4.07700256
    C      1.94857911     -2.69908383     -2.94727415      4.20143632
    C      1.38883783     -2.13484448     -1.79103836      3.62260826
    F      0.54511996     -2.88304749     -1.06654816      7.24940442
    C      1.70808186     -0.83492950     -1.35020234      4.04798755
    N      1.22201122     -0.29098817     -0.07572894      5.03775135
    N      0.00285983     -0.00050163      0.04398116      5.07169095
    C     -0.90542886     -0.14164973     -1.07266145      3.84825767
    C     -1.80155966     -1.22128210     -1.08318518      4.11435691
    C     -2.75016482     -1.34744059     -2.11373012      3.91871741
    C     -3.62963849     -2.48260092     -2.15106668      3.83295881
    N     -4.33645888     -3.39738089     -2.18562219      5.26865702
    C     -2.83341467     -0.36572827     -3.11189772      4.09616516
    C     -1.98694853      0.75152608     -3.05946372      4.06607949
    C     -2.10233032      1.78615500     -4.11595431      3.32487771
    O     -2.91971479      1.76903608     -5.03248897      6.55831599
    O     -1.20721066      2.81107209     -4.02856777      6.51167833
    C     -1.03120540      0.87455311     -2.03117272      4.12842724
    H      1.88277710      2.14238639     -2.65706505      0.95001875
    H      1.71259401      2.28164493     -0.87495630      0.95354331
    H      3.09020980      3.07326709     -1.72072698      0.93276269
    H      4.82430017      1.69869637     -4.75252057      0.62258838
    H      3.34258697     -2.36062121     -4.56572521      0.88110239
    H      1.66799287     -3.69744736     -3.26111014      0.87773076
    H     -1.73117556     -1.98051555     -0.30891713      0.88596966
    H     -3.55584035     -0.44071034     -3.91925599      0.87881874
    H     -1.38245347      3.41712425     -4.75995427      0.61868065
    H     -0.39308703      1.75896439     -1.98290905      0.89625770
   35
Geometry Step: 12
    C      2.42999918      2.19967317     -1.70751132      3.93837673
    O      3.24756300      1.03699095     -1.57664602      6.33862235
    C      2.73120605     -0.15307060     -2.04515916      3.71239424
    C      3.28751614     -0.69604401     -3.22183532      4.16026568