   35
Geometry Step: 0
    C     -3.62935029      1.87371875      0.26709474      3.94511999
    O     -2.57698542      2.38605575     -0.55467978      6.33969365
    C     -2.37444136      1.58916185     -1.65610809      3.74485543
    C     -1.68500793      0.36546119     -1.54984344      3.94268978
    N     -1.21070375     -0.13313420     -0.32047182      5.02348467
    N      0.00000000      0.00000000      0.00000000      5.06707948
    C      0.47949944     -0.49913674      1.23297677      3.85247255
    C      0.53710913      0.34471170      2.36591841      3.98526669
    C      0.05680921      1.77234471      2.33387626      4.24552067
    C      0.98835389     -0.16321328      3.59865948      4.09096142
    C      1.35028651     -1.50081973      3.73393004      4.08964281
    C      1.25113544     -2.35395330      2.64108624      4.10937290
    C      0.81957696     -1.85584663      1.40007846      4.14914473
    C      0.68963183     -2.80794683      0.27701487      3.31179501
    O     -0.30614048     -2.93511183     -0.40907592      6.53015110
    O      1.82186717     -3.52537883      0.08627996      6.48836668
    C     -1.54856714     -0.43045010     -2.69753302      4.11754017
    C     -2.00355867      0.01663096     -3.93735503      4.20498402
    C     -2.61654926      1.26120544     -4.03279798      3.63069032
    F     -3.02782894      1.67916546     -5.23819336      7.24710246
    C     -2.80794680      2.05705594     -2.90521273      4.08991111
    C     -3.45279123      3.32614137     -3.04269116      3.80466285
    N     -3.98034205      4.35436723     -3.15393036      5.28776182
    H     -3.90983485      2.65948854      0.97488157      0.93698846
    H     -3.29319864      1.00719663      0.84378161      0.95171758
    H     -4.51608436      1.61816311     -0.32403243      0.95052086
    H     -0.09946822      2.14940552      1.32050441      0.90637183
    H     -0.89490280      1.85112529      2.86966453      0.90760544
    H      0.78951133      2.42878416      2.81541900      0.91304464
    H      1.03231834      0.48844261      4.47082591      0.91232447
    H      1.67425935     -1.88058954      4.70058485      0.91179970
    H      1.47459784     -3.41116405      2.76986161      0.91340443
    H      2.57399561     -3.26401160      0.65061187      0.64402662
    H     -1.07304677     -1.40840054     -2.61748994      0.87316377
    H     -1.88445793     -0.59914808     -4.82482330      0.88076188
   35
Geometry Step: 1
    C     -3.62802253      1.90502269      0.29085706      3.93210569
    O     -2.59649060      2.38672873     -0.53737574      6.33992185
    C     -2.35675432      1.58599388     -1.65391601      3.72939382
    C     -1.66717123      0.37359392     -1.60463048      3.95394480
    N     -1.26909601     -0.16609002     -0.24505779      5.05910049
    N      0.06477814      0.03743847     -0.04628768      5.10427969
    C      0.43065081     -0.51261906      1.30567285      3.85883822
    C      0.54855595      0.36512197      2.38784344      3.96603146
    C      0.06167870      1.78147936      2.32125203      4.24575956
    C      0.98719267     -0.15689589      3.58033870      4.08576622
    C      1.35229111     -1.50402891      3.74962514      4.09253263
    C      1.26031961     -2.34290742      2.64490165      4.10459157
    C      0.82383698     -1.85377449      1.41613545      4.12148530
    C      0.69356297     -2.79877355      0.27639045      3.33878583
    O     -0.31304200     -2.94963881     -0.43315363      6.50573537
    O      1.85611134     -3.56522482      0.06176539      6.50367123
    C     -1.53776190     -0.45035038     -2.70407157      4.09270009
    C     -2.00307205     -0.00359449     -3.94800754      4.21673125
    C     -2.60612403      1.23473436     -4.07014455      3.61981107
    F     -3.03077726      1.68661782     -5.23439361      7.23285626
    C     -2.82032694      2.07627358     -2.90804099      4.11606122
    C     -3.48432711      3.38735609     -3.04011554      3.80116310
    N     -3.96260592      4.31958964     -3.15080567      5.27369473
    H     -3.90812697      2.66037245      0.97510909      0.92861423
    H     -3.29112161      0.99168522      0.84449432      0.96260274
    H     -4.51578096      1.61326015     -0.32908464      0.96500868
    H     -0.09914076      2.14013460      1.32573093      0.89563237
    H     -0.88789302      1.85732666      2.86819495      0.90932741
    H      0.77782580      2.42560314      2.81676205      0.91291900
    H      1.03033379      0.48947338      4.46441026      0.91988803
    H      1.67331256     -1.88091890      4.69768279      0.90236377
    H      1.47456942     -3.41058574      2.76199260      0.91618294
    H      2.54773216     -3.26460782      0.64284132      0.64548960
    H     -1.07276542     -1.39975394     -2.61570927      0.86610500
    H     -1.88460623     -0.59772095     -4.82239355      0.88090479
   35
Geometry Step: 2
    C     -3.62903164      1.88123147      0.27279753      3.94192556
    O     -2.58166652      2.38621726     -0.55052693      6.33979585
    C     -2.37019660      1.58840156     -1.65558201      3.74015989
    C     -1.68072725      0.36741299     -1.56299194      3.94464479
    N     -1.22471748     -0.14104336     -0.30237300      5.03585248
    N      0.01554629      0.00898496     -0.01110871      5.07906522
    C      0.46777612     -0.50237240      1.25042331      3.85252993
    C      0.53985628      0.34961002      2.37118026      3.97997196
    C      0.05797786      1.77453696      2.33084653      4.24559492
    C      0.98807521     -0.16169715      3.59426262      4.09012278
    C      1.35076760     -1.50158991      3.73769675      4.08967918
    C      1.25333958     -2.35130237      2.64200191      4.10859077
    C      0.82059934     -1.85534933      1.40393202      4.14169753
    C      0.69057528     -2.80574531      0.27686502      3.31829220
    O     -0.30779679     -2.93859820     -0.41485439      6.52383352
    O      1.83008552     -3.53494158      0.08039664      6.49220061
    C     -1.54597396     -0.43522603     -2.69910222      4.11024559
    C     -2.00344188      0.01177699     -3.93991155      4.20827298
    C     -2.61404728      1.25485257     -4.04176089      3.62722389
    F     -3.02853651      1.68095398     -5.23728145      7.24360163
    C     -2.81091794      2.06166804     -2.90589149      4.09688640
    C     -3.46035962      3.34083246     -3.04207303      3.80337981
    N     -3.97608550      4.34602086     -3.15318045      5.28431576
    H     -3.90942497      2.65970067      0.97493617      0.93503864
    H     -3.29270017      1.00347400      0.84395265      0.95407889
    H     -4.51601155      1.61698643     -0.32524492      0.95406898
    H     -0.09938963      2.14718057      1.32175874      0.90349871
    H     -0.89322051      1.85261358      2.86931184      0.90801636
    H      0.78670688      2.42802074      2.81574132      0.91312965
    H      1.03184206      0.48868999      4.46928620      0.91406516
    H      1.67403213     -1.88066859      4.69988838      0.90948714
    H      1.47459102     -3.41102526      2.76797310      0.91403709
    H      2.56769257     -3.26415469      0.64874699      0.64448834
    H     -1.07297925     -1.40632542     -2.61706259      0.87136414
    H     -1.88449352     -0.59880558     -4.82424017      0.88084365
   35
Geometry Step: 3
    C     -3.62922656      1.88697433      0.27878496      3.93884000
    O     -2.58680262      2.38601813     -0.54616032      6.33959692
    C     -2.36666855      1.59104109     -1.65754385      3.73799171
    C     -1.67376218      0.36700651     -1.57239211      3.95232782
    N     -1.22670351     -0.14676708     -0.27952623      5.04084111
    N      0.01856338      0.01636879     -0.02541522      5.08295515
    C      0.45215344     -0.50468009      1.26865990      3.85861007
    C      0.54199790      0.35661145      2.37627078      3.97522404
    C      0.05932786      1.77723432      2.32848103      4.24571481
    C      0.98930513     -0.16098626      3.59366495      4.09029832
    C      1.35037654     -1.50073344      3.74041040      4.08686020
    C      1.25709993     -2.34949582      2.64538865      4.10809636
    C      0.82099139     -1.85435286      1.40795498      4.13767830
    C      0.69036423     -2.80590952      0.27204333      3.32327849
    O     -0.30462440     -2.94281619     -0.41942389      6.51449759
    O      1.83546366     -3.54607638      0.07166142      6.49650664
    C     -1.54303252     -0.43999827     -2.70310330      4.10341337
    C     -2.00288847      0.00486158     -3.94334968      4.20969807
    C     -2.61186055      1.25114023     -4.04720839      3.62588412
    F     -3.02981761      1.68331642     -5.23787071      7.24121165
    C     -2.81443373      2.06673121     -2.90961158      4.09695790
    C     -3.45561540      3.33110089     -3.03805438      3.80188892
    N     -3.98368004      4.36080969     -3.15497870      5.28933453
    H     -3.90943002      2.66213488      0.97692292      0.93348108
    H     -3.29254164      0.99947691      0.84377869      0.95618968
    H     -4.51487841      1.61590722     -0.32580195      0.95665080
    H     -0.09935154      2.14427736      1.32211230      0.90143521
    H     -0.89050350      1.85484301      2.86849731      0.90807729
    H      0.78303076      2.42766685      2.81636324      0.91271678
    H      1.03126782      0.48893564      4.46663423      0.91485344
    H      1.67406594     -1.88106470      4.70011022      0.90889241
    H      1.47471925     -3.41028770      2.76515030      0.91400413
    H      2.56112896     -3.26405895      0.64743093      0.64533425
    H     -1.07197736     -1.40530388     -2.61621503      0.87068195
    H     -1.88431242     -0.59960449     -4.82485297      0.87997688
   35
Geometry Step: 4
    C     -3.62919242      1.88596831      0.27773610      3.93937579
    O     -2.58590289      2.38605302     -0.54692525      6.33963975
    C     -2.36728659      1.59057871     -1.65720018      3.73834443
    C     -1.67498231      0.36707771     -1.57074541      3.95096771
    N     -1.22635560     -0.14576441     -0.28352847      5.04008171
    N      0.01803485      0.01507531     -0.02290904      5.08236202
    C      0.45489018     -0.50427583      1.26546526      3.85750197
    C      0.54162274      0.35538496      2.37537903      3.97603355
    C      0.05909137      1.77676180      2.32889541      4.24569128
    C      0.98908968     -0.16111079      3.59376965      4.09028453
    C      1.35044504     -1.50088348      3.73993503      4.08732182
    C      1.25644120     -2.34981229      2.64479537      4.10819124
    C      0.82092271     -1.85452742      1.40725025      4.13835265
    C      0.69040120     -2.80588075      0.27288798      3.32240407
    O     -0.30518013     -2.94207729     -0.41862342      6.51611576
    O      1.83452153     -3.54412581      0.07319164      6.49575422
    C     -1.54354779     -0.43916228     -2.70240240      4.10457048
    C     -2.00298542      0.00607300     -3.94274739      4.20947339
    C     -2.61224362      1.25179055     -4.04625411      3.62608895
    F     -3.02959319      1.68290257     -5.23776749      7.24162857
    C     -2.81381784      2.06584426     -2.90895990      4.09699439
    C     -3.45644648      3.33280564     -3.03875836      3.80209905
    N     -3.98234965      4.35821902     -3.15466369      5.28845923
    H     -3.90942913      2.66170846      0.97657488      0.93375438
    H     -3.29256941      1.00017711      0.84380916      0.95581350
    H     -4.51507691      1.61609628     -0.32570437      0.95620456
    H     -0.09935821      2.14478593      1.32205037      0.90178475
    H     -0.89097946      1.85445247      2.86864000      0.90806806
    H      0.78367474      2.42772885      2.81625430      0.91279278
    H      1.03136841      0.48889260      4.46709879      0.91471628
    H      1.67406002     -1.88099531      4.70007136      0.90899622
    H      1.47469678     -3.41041691      2.76564479      0.91400969
    H      2.56227876     -3.26407572      0.64766147      0.64518990
    H     -1.07215286     -1.40548283     -2.61636350      0.87080270
    H     -1.88434415     -0.59946454     -4.82474562      0.88013060
   35
Geometry Step: 5
    C     -3.63065879      1.88500236      0.28164543      3.93859931
    O     -2.58905595      2.38535474     -0.54528400      6.34147990
    C     -2.36458301      1.59493361     -1.66132145      3.73834880
    C     -1.66826280      0.36499587     -1.56884531      3.95960576
    N     -1.21676754     -0.14482735     -0.26770877      5.03698335
    N      0.00775319      0.01595868     -0.03030909      5.07805637
    C      0.43942134     -0.50360059      1.27546111      3.86433259
    C      0.54156876      0.36192960      2.37876049      3.97486220
    C      0.06000990      1.77945248      2.32904548      4.24594646
    C      0.99208389     -0.16078925      3.59950526      4.09209929
    C      1.34914036     -1.49802989      3.74099045      4.08277963
    C      1.26088196     -2.35009839      2.64916635      4.10903411
    C      0.81980422     -1.85378515      1.40969766      4.14026863
    C      0.69212094     -2.80957094      0.26465637      3.32413610
    O     -0.29817032     -2.94639871     -0.42199645      6.51068576
    O      1.83317932     -3.55289951      0.06362910      6.49488439
    C     -1.54078041     -0.44169247     -2.70752111      4.10349058
    C     -2.00310426      0.00095224     -3.94651126      4.20812005
    C     -2.61079579      1.25207342     -4.04516285      3.62590671
    F     -3.03113523      1.68499875     -5.24029056      7.24449978
    C     -2.81192660      2.06093919     -2.91424928      4.09425434
    C     -3.46200724      3.34241568     -3.03717248      3.80473827
    N     -3.98318082      4.35989687     -3.15475137      5.28444104
    H     -3.91025233      2.66754307      0.98171243      0.93465031
    H     -3.29331363      0.99756441      0.84310736      0.95541599
    H     -4.51232450      1.61577679     -0.32441321      0.95573298
    H     -0.09939177      2.14184309      1.32011747      0.90154748
    H     -0.88760052      1.85737542      2.86732308      0.90756115
    H      0.78017999      2.42896651      2.81742987      0.91215689
    H      1.03110155      0.48953010      4.46431815      0.91350970
    H      1.67448315     -1.88163082      4.70185945      0.91079059
    H      1.47538231     -3.40917004      2.76241114      0.91313433
    H      2.55704997     -3.26416719      0.64707157      0.64667843
    H     -1.06938619     -1.40764818     -2.61519550      0.87172156
    H     -1.88371804     -0.60287349     -4.82836333      0.87954716
   35
Geometry Step: 6
    C     -3.63025758      1.88526665      0.28057580      3.93881008
    O     -2.58819324      2.38554580     -0.54573307      6.34098442
    C     -2.36532273      1.59374207     -1.66019383      3.73834617
    C     -1.67010132      0.36556548     -1.56936519      3.95720167
    N     -1.21939092     -0.14508374     -0.27203718      5.03786338
    N      0.01056635      0.01571698     -0.02828437      5.07925227
    C      0.44365375     -0.50378535      1.27272615      3.86240777
    C      0.54158353      0.36013893      2.37783529      3.97519933
    C      0.05975858      1.77871628      2.32900442      4.24587500
    C      0.99126465     -0.16087723      3.59793594      4.09159411
    C      1.34949733     -1.49881066      3.74070168      4.08402305
    C      1.25966693     -2.35002011      2.64797041      4.10879976
    C      0.82011025     -1.85398824      1.40902802      4.13974947
    C      0.69165041     -2.80856127      0.26690862      3.32365639
    O     -0.30008827     -2.94521633     -0.42107356      6.51218632
    O      1.83354656     -3.55049895      0.06624550      6.49511258
    C     -1.54153759     -0.44100018     -2.70612058      4.10379684
    C     -2.00307174      0.00235333     -3.94548143      4.20848846
    C     -2.61119193      1.25199602     -4.04546143      3.62595416
    F     -3.03071331      1.68442522     -5.23960023      7.24372484
    C     -2.81244406      2.06228126     -2.91280206      4.09503026
    C     -3.46048576      3.33978629     -3.03760639      3.80399234
    N     -3.98295340      4.35943780     -3.15472738      5.28553553
    H     -3.91002709      2.66594667      0.98030675      0.93440988
    H     -3.29311001      0.99827927      0.84329938      0.95552495
    H     -4.51307758      1.61586420     -0.32476648      0.95586368
    H     -0.09938259      2.14264828      1.32064633      0.90161283
    H     -0.88852503      1.85657567      2.86768340      0.90770097
    H      0.78113618      2.42862787      2.81710823      0.91233110
    H      1.03117457      0.48935568      4.46507896      0.91384336
    H      1.67436738     -1.88145694      4.70137022      0.91029893
    H      1.47519475     -3.40951120      2.76329590      0.91337562
    H      2.55848062     -3.26414216      0.64723297      0.64627392
    H     -1.07014318     -1.40705572     -2.61551507      0.87147128
    H     -1.88388935     -0.60194077     -4.82737349      0.87970929
   35
Geometry Step: 7
    C     -3.63229237      1.88193074      0.28364185      3.93998981
    O     -2.58942024      2.38491726     -0.54725812      6.34303526
    C     -2.36065512      1.59333239     -1.66225150      3.73963271
    C     -1.66711594      0.36522445     -1.56427302      3.95451022
    N     -1.22507078     -0.14127439     -0.26973968      5.03811363
    N      0.01346970      0.01366196     -0.02276480      5.07922494
    C      0.43211765     -0.50246099      1.27629983      3.85941414
    C      0.54045851      0.36242354      2.38173318      3.97697775
    C      0.06019056      1.78153550      2.32997860      4.24647979
    C      0.99326144     -0.15838708      3.60224961      4.09180671
    C      1.34906676     -1.49718026      3.74347115      4.08409208
    C      1.26246605     -2.34971788      2.64839539      4.10939458
    C      0.81821783     -1.85438068      1.41009018      4.14180991
    C      0.69868805     -2.81215060      0.26239430      3.32564797
    O     -0.29701628     -2.94974992     -0.42758784      6.51698999
    O      1.83149881     -3.55569572      0.05956055      6.48713427
    C     -1.53856370     -0.44091143     -2.70712221      4.10530392
    C     -2.00425645      0.00085738     -3.94875273      4.20743626
    C     -2.60985556      1.25148567     -4.04612770      3.62568800
    F     -3.03168902      1.68557810     -5.24128055      7.24517320
    C     -2.81153995      2.06178804     -2.91581996      4.09430691
    C     -3.46303311      3.34273684     -3.03659532      3.80442467
    N     -3.98533503      4.36419076     -3.15475057      5.28479473
    H     -3.91085058      2.67198657      0.98607280      0.93538139
    H     -3.29436757      0.99643362      0.84276770      0.95356457
    H     -4.51030336      1.61584588     -0.32244800      0.95387235
    H     -0.09931722      2.13988132      1.31753717      0.90175846
    H     -0.88585176      1.86005165      2.86653559      0.90720082
    H      0.77866609      2.43181333      2.81892534      0.91188273
    H      1.03161464      0.49145950      4.46472918      0.91269285
    H      1.67474078     -1.88173838      4.70349870      0.91044890
    H      1.47683596     -3.40895380      2.76053928      0.91321825
    H      2.55240261     -3.26583491      0.64495918      0.64742310
    H     -1.06634074     -1.41128173     -2.61463254      0.87156749
    H     -1.88307549     -0.60709581     -4.83316283      0.87960764
   35
Geometry Step: 8
    C     -3.63558474      1.87653312      0.28860283      3.94191887
    O     -2.59140555      2.38390028     -0.54972570      6.34629967
    C     -2.35310278      1.59266953     -1.66558087      3.74172124
    C     -1.66228549      0.36467264     -1.55603373      3.95012352
    N     -1.23426100     -0.13511073     -0.26602225      5.03863267
    N      0.01816743      0.01033686     -0.01383395      5.07919228
    C      0.41345184     -0.50031813      1.28208217      3.85480882
    C      0.53863819      0.36612012      2.38804010      3.97972364
    C      0.06088951      1.78609708      2.33155485      4.24746631
    C      0.99649231     -0.15435795      3.60922928      4.09221945
    C      1.34837009     -1.49454223      3.74795224      4.08410352
    C      1.26699512     -2.34922887      2.64908302      4.11044213
    C      0.81515583     -1.85501565      1.41180877      4.14489204
    C      0.71007520     -2.81795827      0.25508999      3.32899153
    O     -0.29204569     -2.95708543     -0.43812816      6.52463992
    O      1.82818547     -3.56410427      0.04874408      6.47434836
    C     -1.53375186     -0.44076782     -2.70874289      4.10773945
    C     -2.00617334     -0.00156311     -3.95404581      4.20574503
    C     -2.60769327      1.25065991     -4.04720575      3.62529295
    F     -3.03326774      1.68744350     -5.24399937      7.24750690
    C     -2.81007706      2.06098998     -2.92070301      4.09310279
    C     -3.46715482      3.34751094     -3.03495938      3.80513523
    N     -3.98918860      4.37188122     -3.15478809      5.28358593
    H     -3.91218300      2.68175933      0.99540246      0.93692501
    H     -3.29640236      0.99344730      0.84190743      0.95043853
    H     -4.50581456      1.61581623     -0.31869661      0.95068498
    H     -0.09921146      2.13540428      1.31250645      0.90199269
    H     -0.88152632      1.86567591      2.86467840      0.90638623
    H      0.77466939      2.43696751      2.82186550      0.91115088
    H      1.03232668      0.49486357      4.46416322      0.91083389
    H      1.67534495     -1.88219377      4.70694265      0.91070346
    H      1.47949151     -3.40805191      2.75607898      0.91294474
    H      2.54256819     -3.26857383      0.64128011      0.64918935
    H     -1.06018828     -1.41811955     -2.61320457      0.87169743
    H     -1.88175864     -0.61543684     -4.84253018      0.87942057
   35
Geometry Step: 9
    C     -3.63307810      1.88064259      0.28482580      3.94044472
    O     -2.58989403      2.38467456     -0.54784701      6.34381529
    C     -2.35885275      1.59317420     -1.66304605      3.74011727
    C     -1.66596315      0.36509276     -1.56230671      3.95346451
    N     -1.22726404     -0.13980343     -0.26885251      5.03823207
    N      0.01459082      0.01286842     -0.02063344      5.07921474
    C      0.42766304     -0.50194959      1.27767979      3.85828416
    C      0.54002409      0.36330573      2.38323833      3.97764650
    C      0.06035736      1.78262412      2.33035477      4.24671550
    C      0.99403249     -0.15742553      3.60391532      4.09189281
    C      1.34890050     -1.49655070      3.74454056      4.08410298
    C      1.26354691     -2.34960118      2.64855949      4.10963735
    C      0.81748708     -1.85453221      1.41050032      4.14256946
    C      0.70140560     -2.81353661      0.26065112      3.32643778
    O     -0.29583004     -2.95150055     -0.43010329      6.51882596
    O      1.83070808     -3.55770243      0.05697919      6.48406735
    C     -1.53741535     -0.44087716     -2.70750899      4.10588616
    C     -2.00471392      0.00027973     -3.95001593      4.20703623
    C     -2.60933953      1.25128860     -4.04638498      3.62559985
    F     -3.03206578      1.68602328     -5.24192940      7.24573048
    C     -2.81119083      2.06159758     -2.91698530      4.09403786
    C     -3.46401676      3.34387618     -3.03620490      3.80460069
    N     -3.98625469      4.36602609     -3.15475952      5.28449551
    H     -3.91116856      2.67431884      0.98829933      0.93575635
    H     -3.29485318      0.99572093      0.84256240      0.95281244
    H     -4.50923210      1.61583880     -0.32155273      0.95310748
    H     -0.09929198      2.13881287      1.31633659      0.90181642
    H     -0.88481949      1.86139388      2.86609237      0.90700651
    H      0.77771227      2.43304338      2.81962702      0.91170870
    H      1.03178457      0.49227189      4.46459411      0.91224902
    H      1.67488496     -1.88184706      4.70432060      0.91051046
    H      1.47746971     -3.40873856      2.75947482      0.91315786
    H      2.55005562     -3.26648855      0.64408117      0.64785642
    H     -1.06487245     -1.41291358     -2.61429175      0.87159883
    H     -1.88276122     -0.60908641     -4.83539836      0.87956428
   35
Geometry Step: 10
    C     -3.63451352      1.88276061      0.29180698      3.94088982
    O     -2.59165774      2.38295913     -0.55111854      6.34579280
    C     -2.35307020      1.59184072     -1.66428557      3.73908063
    C     -1.66427992      0.36371825     -1.56201556      3.95185973
    N     -1.22698467     -0.12953968     -0.26880779      5.03781985
    N      0.00635175      0.00592635     -0.00823825      5.07504735
    C      0.41715281     -0.50408949      1.28456589      3.85693130
    C      0.53683503      0.36294286      2.38933935      3.97947681
    C      0.06170058      1.78665524      2.32960738      4.24716734
    C      0.99537811     -0.15439217      3.60532337      4.08982721
    C      1.34910261     -1.49653536      3.74847087      4.08643610
    C      1.26563858     -2.34505325      2.64756500      4.10736344
    C      0.81417847     -1.85553575      1.40938011      4.14667005
    C      0.70369278     -2.81751635      0.25205539      3.32716176
    O     -0.28665511     -2.95718314     -0.43805024      6.51543522
    O      1.83157738     -3.56321180      0.05044329      6.48480580
    C     -1.53191463     -0.43994586     -2.70523508      4.10606956
    C     -2.00396145     -0.00404143     -3.95254325      4.20937483
    C     -2.60886137      1.25112893     -4.05329230      3.62572036
    F     -3.03276616      1.68657189     -5.24271008      7.24221779
    C     -2.81073208      2.06681233     -2.91660857      4.09698095
    C     -3.46650253      3.34534889     -3.03574448      3.80349325
    N     -3.98880158      4.37092364     -3.15394885      5.28592561
    H     -3.91082144      2.67876983      0.99391772      0.93415429
    H     -3.29649640      0.99155599      0.84312709      0.95274584
    H     -4.50766916      1.61502059     -0.31839616      0.95278552
    H     -0.09863326      2.13411372      1.31234159      0.90167808
    H     -0.88316512      1.86795364      2.86533331      0.90753032
    H      0.77507290      2.44033562      2.82306913      0.91153384
    H      1.03353929      0.49860463      4.46850376      0.91339833
    H      1.67546050     -1.88189711      4.70801192      0.90967543
    H      1.48142961     -3.40870965      2.75562303      0.91514352
    H      2.53968834     -3.27186998      0.63805132      0.64725165
    H     -1.05962488     -1.41775794     -2.61352432      0.87261674
    H     -1.88194237     -0.61634296     -4.84320525      0.87993886
   35
Geometry Step: 11
    C     -3.63683608      1.88618764      0.30310278      3.94168249
    O     -2.59451148      2.38018350     -0.55641198      6.34899214
    C     -2.34371384      1.58968310     -1.66629116      3.73736925
    C     -1.66155639      0.36149426     -1.56154447      3.94930992
    N     -1.22653264     -0.11293259     -0.26873542      5.03691027
    N     -0.00697935     -0.00530615      0.01181760      5.06765976
    C      0.40014690     -0.50755191      1.29570784      3.85492399
    C      0.53167503      0.36235573      2.39921101      3.98252001
    C      0.06387396      1.79317773      2.32839809      4.24798456
    C      0.99755538     -0.14948408      3.60760164      4.08647355
    C      1.34942963     -1.49651055      3.75483024      4.09052780
    C      1.26902297     -2.33769455      2.64595587      4.10356727
    C      0.80882502     -1.85715951      1.40756758      4.15368994
    C      0.70739352     -2.82395572      0.23814719      3.32839609
    O     -0.27180975     -2.96637777     -0.45090866      6.50980906
    O      1.83298395     -3.57212616      0.03986799      6.48602083
    C     -1.52301428     -0.43843899     -2.70155582      4.10651554
    C     -2.00274394     -0.01103321     -3.95663253      4.21320398
    C     -2.60808770      1.25087056     -4.06446857      3.62595506
    F     -3.03389941      1.68745956     -5.24397325      7.23640091
    C     -2.80998982      2.07524997     -2.91599900      4.10172038
    C     -3.47052458      3.34773179     -3.03499949      3.80175676
    N     -3.99292255      4.37884804     -3.15263717      5.28821320
    H     -3.91025979      2.68597167      1.00300847      0.93151128
    H     -3.29915520      0.98481696      0.84404079      0.95261507
    H     -4.50514026      1.61369669     -0.31328873      0.95216814
    H     -0.09756741      2.12651032      1.30587754      0.90153370
    H     -0.88048830      1.87856754      2.86410512      0.90836898
    H      0.77080231      2.45213471      2.82863858      0.91117188
    H      1.03637851      0.50885122      4.47482969      0.91527246
    H      1.67639175     -1.88197810      4.71398460      0.90833917
    H      1.48783685     -3.40866286      2.74939069      0.91841323
    H      2.52291373     -3.28057732      0.62829481      0.64625739
    H     -1.05113413     -1.42559628     -2.61228259      0.87425770
    H     -1.88061745     -0.62808432     -4.85583707      0.88048823
   35
Geometry Step: 12
    C     -3.63452405      1.88277615      0.29185820      3.94089221
    O     -2.59167068      2.38294654     -0.55114254      6.34581094
    C     -2.35302778      1.59183094     -1.66429467      3.73907359
    C     -1.66426757      0.36370817     -1.56201342      3.95185560