   35
Geometry Step: 0
    C      6.05510497      3.27811386      0.48263221      3.95834936
    O      4.95668700      2.63924000     -0.15905112      6.28765814
    C      4.15997621      1.81731182      0.59566477      3.69189010
    C      4.32218463      1.60868642      1.96790857      4.20546696
    C      3.47044427      0.73647896      2.65702963      4.05615924
    C      3.70743282      0.53213856      4.10649277      3.31534119
    O      4.55883155      1.09682234      4.76739381      6.57328963
    O      2.87127667     -0.36588635      4.64751334      6.48265572
    C      2.43791592      0.08755479      1.97415282      4.16730852
    C      2.22747139      0.31792012      0.60771503      3.84775494
    N      1.19886412     -0.37933893     -0.06422576      5.04172397
    N      0.00000000      0.00000000      0.00000000      5.05478083
    C     -0.37066949      1.13840207      0.74575888      3.83950637
    C     -0.12229936      2.42379825      0.23207765      4.15865827
    C     -0.51048185      3.57130422      0.92952991      4.05790256
    C     -1.18370726      3.44782546      2.14130273      4.19442610
    C     -1.48719627      2.18155424      2.63190362      3.60257406
    F     -2.14593744      2.08857596      3.79633647      7.24904526
    C     -1.10546794      1.03614524      1.93390409      4.18942817
    C     -1.50187175     -0.27134012      2.45768822      3.31440263
    O     -0.76447886     -1.17686576      2.79055077      6.56177054
    O     -2.84127473     -0.37776328      2.50062949      6.47709038
    C      3.11890819      1.15802087     -0.08670601      4.05882782
    C      2.96060277      1.34251346     -1.50222173      3.81722327
    N      2.80465421      1.50762134     -2.64129064      5.29397334
    H      6.75629483      2.54252498      0.89012523      0.94220406
    H      6.58784449      3.86392157     -0.27255157      0.93329270
    H      5.70886180      3.96943969      1.25772875      0.94395662
    H      5.11307475      2.10243531      2.52701765      0.88400359
    H      3.12113726     -0.40965766      5.59406496      0.62572006
    H      1.78928584     -0.61252649      2.49719241      0.86534523
    H      0.36449733      2.53270133     -0.73568103      0.89337860
    H     -0.29786522      4.55595508      0.51836803      0.90032118
    H     -1.49327748      4.32809956      2.69740286      0.88834528
    H     -3.00670202     -1.28034115      2.84511367      0.62622530
   35
Geometry Step: 1
    C      6.05592889      3.28475227      0.46268144      3.96165134
    O      4.94603106      2.62181508     -0.13526812      6.24446340
    C      4.18600428      1.84037800      0.57607298      3.68889627
    C      4.34529384      1.62600814      1.97924402      4.21335784
    C      3.48807194      0.75172789      2.63600363      4.03097791
    C      3.67255775      0.51841075      4.04392581      3.34783266
    O      4.59755832      1.12132972      4.80219772      6.61886427
    O      2.87470085     -0.38212185      4.71915644      6.48413536
    C      2.41418996      0.06509624      1.98767207      4.17169115
    C      2.25475108      0.34604325      0.65671810      3.86491355
    N      1.17946619     -0.39890175     -0.11363765      5.05086977
    N     -0.00847727     -0.05929638     -0.01172851      5.06651784
    C     -0.35219706      1.22308491      0.75076376      3.86583800
    C     -0.10903525      2.44304708      0.20979701      4.12972535
    C     -0.51176918      3.55469003      0.91770937      4.05648600
    C     -1.18951594      3.48471352      2.15702867      4.20051381
    C     -1.49138661      2.21968851      2.62747016      3.60484557
    F     -2.14150384      2.07688872      3.78722848      7.24672163
    C     -1.08801283      1.03869626      1.94210966      4.17659709
    C     -1.52278807     -0.26181544      2.44819687      3.32609897
    O     -0.73821298     -1.22550472      2.80549765      6.58857393
    O     -2.86745472     -0.44927311      2.53266408      6.47187752
    C      3.10640370      1.14682862     -0.11893400      4.07843770
    C      2.94930658      1.35751424     -1.54972137      3.81000399
    N      2.81063903      1.50029617     -2.60553981      5.28191628
    H      6.75631715      2.53916460      0.89982258      0.94104945
    H      6.58335183      3.86159182     -0.27564612      0.92247130
    H      5.70858951      3.96812223      1.26844695      0.94311656
    H      5.11097676      2.10092552      2.52740680      0.86972859
    H      3.10181313     -0.42308464      5.57923402      0.61238957
    H      1.78819984     -0.60727996      2.49867404      0.84614655
    H      0.36773267      2.52888470     -0.73046379      0.88496494
    H     -0.29818626      4.55187847      0.51999465      0.90903027
    H     -1.49210938      4.32770249      2.69754332      0.87412351
    H     -3.02711362     -1.26061562      2.83914961      0.61517206
   35
Geometry Step: 2
    C      6.05528590      3.27957163      0.47825108      3.95885273
    O      4.95434699      2.63541354     -0.15382844      6.27899890
    C      4.16569190      1.82237708      0.59136247      3.69114618
    C      4.32725934      1.61249022      1.97039780      4.20660357
    C      3.47431525      0.73982758      2.65241238      4.05006700
    C      3.69977436      0.52912397      4.09275326      3.32116762
    O      4.56733583      1.10220409      4.77503664      6.58690172
    O      2.87202861     -0.36945161      4.66324595      6.48272461
    C      2.43270577      0.08262296      1.97712161      4.16833175
    C      2.23346193      0.32409588      0.61847596      3.85172748
    N      1.19460439     -0.38363487     -0.07507646      5.04395396
    N     -0.00186158     -0.01302131     -0.00257555      5.05830876
    C     -0.36661300      1.15699816      0.74685794      3.84499249
    C     -0.11938660      2.42802524      0.22718489      4.15182657
    C     -0.51076454      3.56765580      0.92693416      4.05796086
    C     -1.18498283      3.45592597      2.14475610      4.19548649
    C     -1.48811645      2.18992841      2.63093004      3.60320120
    F     -2.14496384      2.08600948      3.79433638      7.24844474
    C     -1.10163485      1.03670543      1.93570601      4.18642368
    C     -1.50646491     -0.26924853      2.45560395      3.31620660
    O     -0.75871095     -1.18754673      2.79383306      6.56914799
    O     -2.84702378     -0.39346662      2.50766419      6.47601456
    C      3.11616224      1.15556308     -0.09378318      4.06279439
    C      2.95812216      1.34580759     -1.51265250      3.81532758
    N      2.80596846      1.50601275     -2.63343987      5.29115068
    H      6.75629973      2.54178705      0.89225474      0.94209829
    H      6.58685791      3.86340996     -0.27323113      0.93099427
    H      5.70880201      3.96915038      1.26008244      0.94392981
    H      5.11261404      2.10210377      2.52710311      0.88050768
    H      3.11689374     -0.41260619      5.59080813      0.62206899
    H      1.78904736     -0.61137437      2.49751777      0.86082408
    H      0.36520780      2.53186320     -0.73453534      0.89151841
    H     -0.29793572      4.55505987      0.51872523      0.90217609
    H     -1.49302097      4.32801237      2.69743371      0.88503980
    H     -3.01118435     -1.27600948      2.84380398      0.62308043
   35
Geometry Step: 3
    C      6.05496512      3.28057739      0.47440808      3.95788614
    O      4.95402592      2.63254608     -0.14836815      6.27301847
    C      4.16874746      1.82497528      0.58635978      3.68787194
    C      4.33365527      1.61863776      1.96848000      4.21187398
    C      3.47660324      0.74173155      2.64524943      4.05007269
    C      3.70296360      0.53174031      4.09176293      3.32186793
    O      4.56363569      1.09969868      4.77268338      6.57841432
    O      2.87295852     -0.37101933      4.67322765      6.49178064
    C      2.43036447      0.07931957      1.98373344      4.16556483
    C      2.23460320      0.33017790      0.62603038      3.85583107
    N      1.19409655     -0.38942928     -0.08902539      5.04652799
    N     -0.00855317     -0.02632138     -0.00411893      5.06162757
    C     -0.35906246      1.17178358      0.74813047      3.85021159
    C     -0.11442902      2.43814236      0.21901600      4.14881457
    C     -0.51279321      3.56739185      0.92537942      4.05711645
    C     -1.18437015      3.46649640      2.14544781      4.19646069
    C     -1.48938298      2.19993130      2.62923978      3.60130418
    F     -2.14360927      2.08203178      3.79105494      7.24851218
    C     -1.09599024      1.04373103      1.93877321      4.19007839
    C     -1.50675397     -0.28181348      2.45755601      3.31622955
    O     -0.75947678     -1.19245520      2.79429209      6.56011712
    O     -2.85080816     -0.40684303      2.51470141      6.47959520
    C      3.11804029      1.15605570     -0.10224993      4.06396619
    C      2.95691014      1.34636342     -1.50000392      3.81276965
    N      2.80456828      1.50751611     -2.64839529      5.29778679
    H      6.75548542      2.54156181      0.89535213      0.94289289
    H      6.58544830      3.86318237     -0.27603175      0.92948893
    H      5.70919936      3.96786917      1.26310103      0.94473476
    H      5.11399648      2.10285514      2.52900498      0.87866197
    H      3.11340685     -0.41758719      5.59694234      0.62160151
    H      1.78649804     -0.61138219      2.49981845      0.85815801
    H      0.36787696      2.53093684     -0.73496834      0.88866467
    H     -0.29815108      4.55291250      0.51933879      0.90411544
    H     -1.49344740      4.33130353      2.69906392      0.88352691
    H     -3.02109994     -1.28123257      2.84648441      0.62285481
   35
Geometry Step: 4
    C      6.05505503      3.28029550      0.47548518      3.95814399
    O      4.95411591      2.63334976     -0.14989854      6.27473940
    C      4.16789106      1.82424707      0.58776191      3.68878744
    C      4.33186265      1.61691475      1.96901751      4.21038080
    C      3.47596197      0.74119791      2.64725703      4.05008184
    C      3.70206974      0.53100701      4.09204049      3.32165027
    O      4.56467275      1.10040088      4.77334294      6.58081254
    O      2.87269789     -0.37057994      4.67043002      6.48923532
    C      2.43102068      0.08024543      1.98188031      4.16634282
    C      2.23428333      0.32847326      0.62391307      3.85467648
    N      1.19423888     -0.38780525     -0.08511585      5.04582234
    N     -0.00667769     -0.02259370     -0.00368636      5.06073731
    C     -0.36117869      1.16763960      0.74777381      3.84873750
    C     -0.11581851      2.43530678      0.22130553      4.14964084
    C     -0.51222462      3.56746583      0.92581518      4.05736140
    C     -1.18454187      3.46353377      2.14525394      4.19617813
    C     -1.48902800      2.19712774      2.62971352      3.60183214
    F     -2.14398892      2.08314663      3.79197464      7.24848998
    C     -1.09757228      1.04176193      1.93791355      4.18904790
    C     -1.50667295     -0.27829184      2.45700889      3.31621820
    O     -0.75926214     -1.19107948      2.79416343      6.56265062
    O     -2.84974749     -0.40309395      2.51272905      6.47859172
    C      3.11751392      1.15591763     -0.09987691      4.06369635
    C      2.95724984      1.34620764     -1.50354901      3.81338506
    N      2.80496072      1.50709476     -2.64420365      5.29591846
    H      6.75571365      2.54162494      0.89448401      0.94267848
    H      6.58584338      3.86324616     -0.27524680      0.92991609
    H      5.70908799      3.96822826      1.26225499      0.94451796
    H      5.11360902      2.10264455      2.52847193      0.87917886
    H      3.11438414     -0.41619114      5.59522307      0.62173914
    H      1.78721255     -0.61138000      2.49917363      0.85890255
    H      0.36712886      2.53119648     -0.73484698      0.88946324
    H     -0.29809072      4.55351436      0.51916683      0.90357418
    H     -1.49332788      4.33038110      2.69860701      0.88394989
    H     -3.01832084     -1.27976867      2.84573315      0.62292077
   35
Geometry Step: 5
    C      6.05457714      3.28023150      0.47494460      3.95639679
    O      4.95636384      2.63356687     -0.14837950      6.27670859
    C      4.16800262      1.82373664      0.58601444      3.68623747
    C      4.33449700      1.62055632      1.96421802      4.21207124
    C      3.47767269      0.74184840      2.64383940      4.05338796
    C      3.70653163      0.53307898      4.09644458      3.31911915
    O      4.55893522      1.09685522      4.76834964      6.57155723
    O      2.87319589     -0.36997313      4.67133955      6.49418960
    C      2.43172971      0.08044611      1.98578073      4.16390194
    C      2.23069059      0.33112063      0.62366465      3.85694388
    N      1.19367921     -0.39021718     -0.09347843      5.04628126
    N     -0.01002056     -0.02937789     -0.00356491      5.06146386
    C     -0.35471037      1.17097372      0.74838412      3.85134032
    C     -0.11227438      2.44330768      0.21626175      4.15027667
    C     -0.51424158      3.57168125      0.92513722      4.05687268
    C     -1.18306571      3.47022624      2.14375329      4.19581090
    C     -1.48958126      2.20338580      2.62819292      3.60001600
    F     -2.14316822      2.08019124      3.78934697      7.24876119
    C     -1.09346994      1.04777021      1.94074556      4.19279997
    C     -1.50578637     -0.28866945      2.45864842      3.31545216
    O     -0.76114549     -1.19419623      2.79379476      6.55556479
    O     -2.85012487     -0.40817579      2.51634018      6.47981638
    C      3.12144039      1.15661105     -0.09822330      4.06370904
    C      2.95314539      1.34912651     -1.51257777      3.81491667
    N      2.80567328      1.50651553     -2.64306200      5.29305973
    H      6.75442112      2.54223382      0.89682466      0.94372050
    H      6.58465643      3.86339186     -0.27881584      0.93066728
    H      5.70984029      3.96652095      1.26415427      0.94555175
    H      5.11634430      2.10428896      2.53116245      0.87997000
    H      3.11292718     -0.42071774      5.60623374      0.62323599
    H      1.78370745     -0.61254987      2.50258412      0.85923778
    H      0.37105074      2.53121700     -0.73793728      0.88852932
    H     -0.29830699      4.55199099      0.51950112      0.90363313
    H     -1.49421237      4.33588357      2.70095775      0.88455355
    H     -3.02885263     -1.29149401      2.85089065      0.62424522
   35
Geometry Step: 6
    C      6.05380390      3.28012796      0.47406992      3.95355654
    O      4.96000108      2.63391817     -0.14592164      6.27980275
    C      4.16818313      1.82291074      0.58318697      3.68215089
    C      4.33875947      1.62644849      1.95645227      4.21466530
    C      3.48044068      0.74290091      2.63830957      4.05907618
    C      3.71375112      0.53643149      4.10357056      3.31569094
    O      4.54965170      1.09111822      4.76027030      6.55532763
    O      2.87400167     -0.36899130      4.67281119      6.50228166
    C      2.43287694      0.08077082      1.99209174      4.15980523
    C      2.22487741      0.33540416      0.62326271      3.86066205
    N      1.19277365     -0.39411976     -0.10700935      5.04701890
    N     -0.01542944     -0.04035494     -0.00336840      5.06265989
    C     -0.34424441      1.17636844      0.74937162      3.85560112
    C     -0.10653987      2.45625340      0.20810074      4.15128966
    C     -0.51750509      3.57850193      0.92404026      4.05617890
    C     -1.18067724      3.48105488      2.14132519      4.19516028
    C     -1.49047646      2.21351157      2.62573254      3.59713448
    F     -2.14184031      2.07540933      3.78509530      7.24924901
    C     -1.08683221      1.05749182      1.94532784      4.19903730
    C     -1.50435184     -0.30546078      2.46130123      3.31443673
    O     -0.76419283     -1.19923925      2.79319825      6.54363035
    O     -2.85073547     -0.41639836      2.52218311      6.48171400
    C      3.12779355      1.15773303     -0.09554771      4.06339119
    C      2.94650424      1.35384934     -1.52718661      3.81784138
    N      2.80682623      1.50557832     -2.64121477      5.28849713
    H      6.75232976      2.54321901      0.90061191      0.94542467
    H      6.58273590      3.86362760     -0.28459068      0.93188450
    H      5.71105753      3.96375846      1.26722737      0.94724248
    H      5.12077007      2.10694968      2.53551581      0.88132074
    H      3.11056976     -0.42804193      5.62404937      0.62583678
    H      1.77803608     -0.61444275      2.50810241      0.85979129
    H      0.37739648      2.53125021     -0.74293750      0.88697712
    H     -0.29865691      4.54952613      0.52004202      0.90366982
    H     -1.49564351      4.34478676      2.70476132      0.88553624
    H     -3.04589341     -1.31046602      2.85923565      0.62645684
   35
Geometry Step: 7
    C      6.05455058      3.28022795      0.47491455      3.95629906
    O      4.95648880      2.63357894     -0.14829505      6.27681743
    C      4.16800883      1.82370826      0.58591730      3.68609581
    C      4.33464344      1.62075875      1.96395122      4.21215676
    C      3.47776778      0.74188456      2.64364942      4.05358444
    C      3.70677966      0.53319416      4.09668940      3.31898871
    O      4.55861628      1.09665812      4.76807206      6.57102221
    O      2.87322357     -0.36993940      4.67139011      6.49446628
    C      2.43176912      0.08045727      1.98599754      4.16376788
    C      2.23049087      0.33126779      0.62365084      3.85706981
    N      1.19364810     -0.39035125     -0.09394329      5.04630517
    N     -0.01020638     -0.02975501     -0.00355816      5.06150166
    C     -0.35435081      1.17115906      0.74841805      3.85148258
    C     -0.11207737      2.44375244      0.21598137      4.15031496
    C     -0.51435370      3.57191557      0.92509953      4.05684973
    C     -1.18298366      3.47059826      2.14366987      4.19579123
    C     -1.48961202      2.20373368      2.62810839      3.59991432
    F     -2.14312260      2.08002696      3.78920090      7.24877762
    C     -1.09324190      1.04810420      1.94090299      4.19300872
    C     -1.50573708     -0.28924633      2.45873956      3.31541093
    O     -0.76125018     -1.19436949      2.79377427      6.55516506
    O     -2.85014584     -0.40845828      2.51654092      6.47988166
    C      3.12165866      1.15664960     -0.09813138      4.06370730
    C      2.95291722      1.34928876     -1.51307966      3.81500410
    N      2.80571289      1.50648333     -2.64299854      5.29290393
    H      6.75434927      2.54226767      0.89695477      0.94377878
    H      6.58459044      3.86339996     -0.27901424      0.93070952
    H      5.70988211      3.96642604      1.26425985      0.94560946
    H      5.11649635      2.10438037      2.53131202      0.88001470
    H      3.11284619     -0.42096937      5.60684581      0.62332209
    H      1.78351260     -0.61261490      2.50277370      0.85925618
    H      0.37126875      2.53121814     -0.73810907      0.88847696
    H     -0.29831901      4.55190631      0.51951971      0.90363631
    H     -1.49426154      4.33618945      2.70108842      0.88458784
    H     -3.02943808     -1.29214581      2.85117735      0.62432081
   35
Geometry Step: 8
    C      6.05464112      3.28000114      0.47640843      3.95561004
    O      4.96050879      2.63576458     -0.15043924      6.27838179
    C      4.16903220      1.82330651      0.58529553      3.68695165
    C      4.33503980      1.62206328      1.96023251      4.20827438
    C      3.48175808      0.74312260      2.64393751      4.05242532
    C      3.70297261      0.52945503      4.09422058      3.31859976
    O      4.56166898      1.09929195      4.76886455      6.57858020
    O      2.87393767     -0.36967294      4.67468334      6.48936953
    C      2.43195319      0.08237942      1.98534344      4.16467301
    C      2.22488778      0.33277335      0.61851294      3.85821710
    N      1.19082448     -0.38991416     -0.09979268      5.04413662
    N     -0.00951902     -0.03298328     -0.00205982      5.05948098
    C     -0.34740787      1.17022571      0.74851647      3.85274171
    C     -0.10964379      2.44789807      0.21483444      4.15046364
    C     -0.51554749      3.57944442      0.92263943      4.05714719
    C     -1.18225219      3.47708820      2.14281688      4.19474484
    C     -1.48905319      2.20895221      2.62605131      3.59961637
    F     -2.14272935      2.07754749      3.78637446      7.24862314
    C     -1.08872256      1.05008951      1.94351735      4.19260934
    C     -1.50652802     -0.29020436      2.45758307      3.31528430
    O     -0.75933565     -1.20423990      2.79478612      6.56038340
    O     -2.85058494     -0.41640396      2.52140589      6.47743504
    C      3.12258991      1.15564623     -0.09688659      4.06147709
    C      2.94933119      1.35144149     -1.51379083      3.81695464
    N      2.80534427      1.50699320     -2.64990173      5.29217479
    H      6.75246527      2.54367609      0.89967200      0.94379942
    H      6.58275506      3.86345739     -0.28385640      0.93166932
    H      5.71117407      3.96392633      1.26608768      0.94569376
    H      5.12032626      2.10687529      2.53438303      0.88049969
    H      3.11025566     -0.42666802      5.61841095      0.62337191
    H      1.77906234     -0.61396156      2.50802544      0.85985888
    H      0.37815681      2.53280867     -0.74530924      0.88942417
    H     -0.29834833      4.55286022      0.51894908      0.90174612
    H     -1.49545790      4.34525098      2.70415631      0.88503542
    H     -3.04343388     -1.30690539      2.85779832      0.62454544
   35
Geometry Step: 9
    C      6.05478762      3.27963417      0.47882559      3.95455674
    O      4.96701326      2.63930101     -0.15390860      6.28080355
    C      4.17068804      1.82265647      0.58428948      3.68836308
    C      4.33568112      1.62417405      1.95421552      4.20212354
    C      3.48821452      0.74512579      2.64440365      4.05047430
    C      3.69681268      0.52340499      4.09022593      3.31823227
    O      4.56660837      1.10355358      4.77014681      6.59028462
    O      2.87509311     -0.36924181      4.68001189      6.48141232
    C      2.43225102      0.08548953      1.98428507      4.16611328
    C      2.21582179      0.33520939      0.61019964      3.86001707
    N      1.18625575     -0.38920693     -0.10925719      5.04070530
    N     -0.00840684     -0.03820672      0.00036454      5.05627655
    C     -0.33617396      1.16871553      0.74867572      3.85481612
    C     -0.10570618      2.45460584      0.21297867      4.15067490
    C     -0.51747908      3.59162635      0.91865891      4.05762561
    C     -1.18106867      3.48758915      2.14143672      4.19301571
    C     -1.48814899      2.21739596      2.62272288      3.59917580
    F     -2.14209305      2.07353563      3.78180117      7.24840074
    C     -1.08141013      1.05330179      1.94774748      4.19191188
    C     -1.50780779     -0.29175450      2.45571183      3.31527003
    O     -0.75623787     -1.22021055      2.79642333      6.56842989
    O     -2.85129540     -0.42926034      2.52927758      6.47380950
    C      3.12409670      1.15402274     -0.09487249      4.05789921
    C      2.94352886      1.35492466     -1.51494152      3.82016516
    N      2.80474784      1.50781818     -2.66107133      5.29097357
    H      6.74941689      2.54595496      0.90406856      0.94382595
    H      6.57978534      3.86355031     -0.29169118      0.93318995
    H      5.71326451      3.95988171      1.26904518      0.94582174
    H      5.12652320      2.11091215      2.53935203      0.88127820
    H      3.10606409     -0.43588865      5.63712375      0.62335298
    H      1.77186165     -0.61614051      2.51652293      0.86082969
    H      0.38930192      2.53538219     -0.75695936      0.89094583
    H     -0.29839578      4.55440369      0.51802579      0.89874480
    H     -1.49739365      4.35991285      2.70912026      0.88575382
    H     -3.06607955     -1.33078690      2.86851128      0.62472630
   35
Geometry Step: 10
    C      6.05465286      3.27997173      0.47660216      3.95552361
    O      4.96103009      2.63604800     -0.15071729      6.27857701
    C      4.16916490      1.82325442      0.58521490      3.68706358
    C      4.33509120      1.62223244      1.95975028      4.20777632
    C      3.48227553      0.74328315      2.64397487      4.05226701
    C      3.70247893      0.52897015      4.09390043      3.31855925
    O      4.56206485      1.09963350      4.76896731      6.57954216
    O      2.87403027     -0.36963839      4.67511039      6.48871803
    C      2.43197706      0.08262868      1.98525861      4.16478874
    C      2.22416119      0.33296858      0.61784668      3.85837029
    N      1.19045832     -0.38985748     -0.10055121      5.04386143
    N     -0.00942988     -0.03340191     -0.00186552      5.05922286
    C     -0.34650753      1.17010468      0.74852923      3.85291091
    C     -0.10932821      2.44843566      0.21468571      4.15047934
    C     -0.51570230      3.58042074      0.92232042      4.05718663
    C     -1.18215734      3.47792980      2.14270627      4.19460557
    C     -1.48898072      2.20962893      2.62578455      3.59957793
    F     -2.14267835      2.07722596      3.78600793      7.24860331
    C     -1.08813651      1.05034695      1.94385637      4.19255227
    C     -1.50663059     -0.29032860      2.45743310      3.31527633
    O     -0.75908738     -1.20551986      2.79491734      6.56104667
    O     -2.85064188     -0.41743433      2.52203676      6.47713144
    C      3.12271067      1.15551612     -0.09672517      4.06118076
    C      2.94886617      1.35172064     -1.51388305      3.81720827
    N      2.80529647      1.50705932     -2.65079691      5.29208495
    H      6.75222096      2.54385873      0.90002436      0.94380212
    H      6.58251705      3.86346484     -0.28448432      0.93179389
    H      5.71134161      3.96360217      1.26632471      0.94570482
    H      5.12082291      2.10719882      2.53478127      0.88056262
    H      3.10991972     -0.42740701      5.61991068      0.62337452
    H      1.77848524     -0.61413619      2.50870647      0.85993782
    H      0.37905003      2.53301492     -0.74624293      0.88954723
    H     -0.29835213      4.55298392      0.51887508      0.90150083
    H     -1.49561304      4.34642605      2.70455415      0.88509342
    H     -3.04524880     -1.30881936      2.85865691      0.62456803
   35
Geometry Step: 11
    C      6.05720131      3.28184139      0.47682625      3.95751426
    O      4.96328649      2.63701797     -0.15508851      6.27590575
    C      4.17287253      1.82530446      0.58169973      3.68887331
    C      4.33856720      1.62326466      1.96417479      4.20860884
    C      3.48303121      0.74177214      2.64420855      4.05208449
    C      3.70316777      0.52746186      4.09546974      3.31859542
    O      4.56347720      1.10147182      4.76735706      6.57745341
    O      2.87566044     -0.37103801      4.68761139      6.49255184
    C      2.42856697      0.08457593      1.97897279      4.16577994
    C      2.22030995      0.33326730      0.61418868      3.85478824
    N      1.19156875     -0.38886182     -0.10464128      5.04482739
    N     -0.01129277     -0.03044522      0.00095515      5.05965612
    C     -0.34084273      1.16971989      0.75040292      3.84998792
    C     -0.10650064      2.44728536      0.21562812      4.14981782
    C     -0.51575452      3.58437054      0.91838086      4.05700683
    C     -1.18338816      3.48698228      2.14394658      4.19596719
    C     -1.48636479      2.21205298      2.62291748      3.59978759
    F     -2.14273691      2.07620419      3.78236978      7.24857620
    C     -1.08294204      1.04732789      1.94416207      4.19333827
    C     -1.50175490     -0.29504089      2.45952982      3.31374233
    O     -0.76175832     -1.21095318      2.79224178      6.55448445
    O     -2.85253276     -0.43563451      2.53101936      6.48662795
    C      3.11869627      1.15335015     -0.10138093      4.06329376
    C      2.94481921      1.35505724     -1.51827214      3.81698173
    N      2.80524489      1.50691574     -2.65271117      5.29183012
    H      6.75058243      2.54532248      0.90381647      0.94276545
    H      6.57929949      3.86245925     -0.28878715      0.93039591
    H      5.71282615      3.96091514      1.26897832      0.94468247
    H      5.12314703      2.10911175      2.53572501      0.87963421
    H      3.10476777     -0.43363333      5.62542463      0.62238524
    H      1.77570103     -0.61227955      2.51397086      0.86144829
    H      0.38767645      2.53653189     -0.75420580      0.89127578
    H     -0.29743588      4.56115423      0.51538156      0.90180021
    H     -1.49639677      4.35804134      2.70695695      0.88384895
    H     -3.06064801     -1.31950760      2.86424080      0.62368229
   35
Geometry Step: 12
    C      6.06132480      3.28486655      0.47718885      3.96075515
    O      4.96693743      2.63858741     -0.16216129      6.27157994
    C      4.17887160      1.82862151      0.57601208      3.69183997
    C      4.34419148      1.62493482      1.97133380      4.20987329