   36
Geometry Step: 0
    C      4.26834632     -0.63540676     -3.78926981      4.24761008
    C      3.43672018      0.28655197     -2.93668248      3.94800485
    C      3.35854580      1.64365237     -3.28424903      4.11772058
    C      2.62246233      2.53366588     -2.50141976      4.09717402
    C      2.57268454      3.95657269     -2.89922435      3.31351135
    O      2.45859373      4.31910528     -4.05594152      6.52291370
    O      2.70438976      4.80075774     -1.85510644      6.48714169
    C      1.91645712      2.07226640     -1.39118536      4.17045996
    C      1.94626074      0.71371912     -1.04623112      3.84392266
    N      1.22186314      0.29414615      0.09027295      5.06107547
    N      0.00000000      0.00000000      0.00000000      5.05837982
    C     -0.72275995     -0.41863226      1.13397274      3.82128813
    C     -0.76822190     -1.77101137      1.48030644      4.22890575
    C     -1.46442836     -2.17420311      2.61334831      3.58319862
    F     -1.51343384     -3.47578802      2.92413113      7.25588107
    C     -2.10851487     -1.25302821      3.42824313      4.19815141
    C     -2.04442000      0.10522110      3.10820483      4.05766423
    C     -2.73846930      1.06802928      3.99308930      3.31651601
    O     -3.29683380      0.79604569      5.03862575      6.56384827
    O     -2.71142432      2.32234094      3.51179111      6.49468038
    C     -1.33628629      0.52072521      1.97243443      4.16098283
    C      2.75165587     -0.17996999     -1.78881406      4.01668875
    C      2.86389980     -1.62933118     -1.38406576      4.24323665
    H      5.14828875     -0.97324216     -3.23311858      0.90804620
    H      3.67876780     -1.50172007     -4.10548402      0.90896157
    H      4.61893260     -0.13448575     -4.69802782      0.91394217
    H      3.87961824      2.01655015     -4.16613569      0.89565680
    H      2.95664046      4.37741590     -1.01283736      0.64531617
    H      1.30414313      2.75092614     -0.80202096      0.91332460
    H     -0.26502952     -2.51305810      0.86900307      0.88893505
    H     -2.64899232     -1.59952908      4.30521882      0.86936402
    H     -3.23142461      2.83945421      4.16382565      0.62380338
    H     -1.26172683      1.57688600      1.72470562      0.88890907
    H      3.91608683     -1.92537368     -1.31922062      0.91131053
    H      2.42481465     -1.82876898     -0.40240527      0.91688792
    H      2.35495889     -2.26443732     -2.11576190      0.90658624
   36
Geometry Step: 1
    C      4.26431959     -0.63452155     -3.79414583      4.25788803
    C      3.43895850      0.29710373     -2.93129067      3.95055413
    C      3.36416755      1.62079957     -3.29238162      4.10226300
    C      2.62645329      2.50999336     -2.50815106      4.09728549
    C      2.57692327      3.94075873     -2.90959984      3.34512110
    O      2.45765110      4.34466876     -4.05829253      6.48532168
    O      2.71085430      4.85565930     -1.82248837      6.52088726
    C      1.90587061      2.07199747     -1.36953483      4.15127732
    C      1.94686537      0.72511165     -1.10404807      3.85097402
    N      1.26475889      0.27426802      0.16293568      5.10193273
    N     -0.04211995      0.00521934     -0.07801399      5.08928456
    C     -0.69096640     -0.41129909      1.19548964      3.83039961
    C     -0.75878827     -1.81228385      1.45037915      4.22416676
    C     -1.46927427     -2.18251726      2.61138621      3.58867540
    F     -1.51100116     -3.47433531      2.92301545      7.24872486
    C     -2.12370554     -1.27638379      3.45568561      4.18795902
    C     -2.04067517      0.08759165      3.10540512      4.03681123
    C     -2.70110532      1.04701320      3.93904226      3.34919813
    O     -3.32281977      0.78964518      5.08362616      6.59492056
    O     -2.74845472      2.38154679      3.55135478      6.50592648
    C     -1.34991766      0.54774809      1.96243936      4.15266134
    C      2.76094313     -0.19104396     -1.78864051      3.99831456
    C      2.86220772     -1.63000226     -1.37705760      4.24011004
    H      5.14245292     -0.98048543     -3.23835020      0.90852809
    H      3.68878606     -1.50201564     -4.09878135      0.90621089
    H      4.61467403     -0.13619898     -4.68472131      0.90958327
    H      3.87551548      2.01432121     -4.16149023      0.89337524
    H      2.94510892      4.37783759     -1.03869174      0.64621508
    H      1.30294997      2.75319527     -0.80399065      0.89803507
    H     -0.26262626     -2.51344898      0.86668151      0.86818408
    H     -2.64993797     -1.59146850      4.30634112      0.85094842
    H     -3.21573895      2.84880485      4.13868690      0.61005086
    H     -1.26450302      1.57537027      1.72865129      0.87305722
    H      3.90819526     -1.92839525     -1.32786315      0.91039059
    H      2.42272043     -1.82012175     -0.41224721      0.90832895
    H      2.36342285     -2.26808625     -2.11136815      0.90643492
   36
Geometry Step: 2
    C      4.26728683     -0.63517385     -3.79055276      4.25027062
    C      3.43730911      0.28932828     -2.93526382      3.94914685
    C      3.36002496      1.63763949     -3.28638882      4.11259864
    C      2.62351240      2.52743733     -2.50319085      4.09767489
    C      2.57379981      3.95241183     -2.90195428      3.32164916
    O      2.45834571      4.32583137     -4.05656010      6.51276994
    O      2.70609067      4.81520307     -1.84652419      6.49634268
    C      1.91367167      2.07219564     -1.38548882      4.16449102
    C      1.94641983      0.71671664     -1.06144352      3.84497448
    N      1.23314958      0.28891595      0.10939148      5.07503192
    N     -0.01108232      0.00137328     -0.02052651      5.06895046
    C     -0.71439464     -0.41670281      1.15015865      3.82226147
    C     -0.76573979     -1.78187070      1.47243217      4.22742994
    C     -1.46570338     -2.17639068      2.61283206      3.58494937
    F     -1.51279377     -3.47540579      2.92383758      7.25397681
    C     -2.11251173     -1.25917337      3.43546361      4.19508395
    C     -2.04343469      0.10058256      3.10746819      4.05140651
    C     -2.72863834      1.06249967      3.97886881      3.32368341
    O     -3.30367105      0.79436163      5.05046595      6.57578059
    O     -2.72116751      2.33791878      3.52220083      6.49757957
    C     -1.33987289      0.52783529      1.96980459      4.15885038
    C      2.75409947     -0.18288369     -1.78876840      4.01093080
    C      2.86345459     -1.62950775     -1.38222182      4.24241410
    H      5.14675326     -0.97514796     -3.23449509      0.90812693
    H      3.68140374     -1.50179784     -4.10372046      0.90819287
    H      4.61781212     -0.13493653     -4.69452670      0.91280174
    H      3.87853875      2.01596369     -4.16491341      0.89507452
    H      2.95360636      4.37752685     -1.01963999      0.64562181
    H      1.30382920      2.75152318     -0.80253921      0.90909021
    H     -0.26439719     -2.51316094      0.86839224      0.88301252
    H     -2.64924113     -1.59740823      4.30551411      0.86401541
    H     -3.22729751      2.84191449      4.15721131      0.61929682
    H     -1.26245728      1.57648719      1.72574378      0.88445339
    H      3.91401046     -1.92616869     -1.32149459      0.91113425
    H      2.42426363     -1.82649378     -0.40499482      0.91438639
    H      2.35718587     -2.26539740     -2.11460585      0.90654558
   36
Geometry Step: 3
    C      4.26583189     -0.63458321     -3.79005873      4.25109244
    C      3.44056807      0.28564899     -2.93414237      3.94873527
    C      3.36043235      1.63252897     -3.28897262      4.11188367
    C      2.62287436      2.52043692     -2.50365347      4.09714215
    C      2.57626788      3.95431974     -2.90460778      3.32905961
    O      2.45858895      4.33583150     -4.05228927      6.50313047
    O      2.70652064      4.83433008     -1.84491655      6.50111905
    C      1.91323846      2.07450271     -1.38416990      4.15917979
    C      1.94292053      0.71370176     -1.07259727      3.85496842
    N      1.22553078      0.27548337      0.12791810      5.07782533
    N     -0.00087909      0.00931236     -0.04252441      5.06967640
    C     -0.69860720     -0.41764816      1.16678129      3.83251246
    C     -0.76744050     -1.78790807      1.46794024      4.22368931
    C     -1.46645620     -2.18022009      2.61043095      3.58402179
    F     -1.51206404     -3.47682969      2.92379262      7.25398288
    C     -2.11393685     -1.26613052      3.43915733      4.19531411
    C     -2.04151224      0.09289597      3.10564259      4.05575971
    C     -2.73345573      1.06024755      3.98800197      3.32196021
    O     -3.29816657      0.79732570      5.03949749      6.55876684
    O     -2.72514461      2.34377315      3.52694630      6.50951440
    C     -1.34532191      0.53119252      1.96807457      4.15340119
    C      2.75787840     -0.18514458     -1.79071971      4.00567632
    C      2.86333913     -1.62962559     -1.38091348      4.24359062
    H      5.14371319     -0.97861420     -3.23724041      0.90839144
    H      3.68547678     -1.50268399     -4.10079664      0.90800969
    H      4.61626979     -0.13496570     -4.68968596      0.91222173
    H      3.87716846      2.01457949     -4.16354480      0.89482613
    H      2.94974722      4.37602166     -1.02592629      0.64751682
    H      1.30211244      2.75353390     -0.80202350      0.90735798
    H     -0.26040451     -2.51774574      0.86328660      0.88254170
    H     -2.65230704     -1.59533035      4.31041607      0.86409870
    H     -3.23093929      2.85567670      4.15992844      0.62037483
    H     -1.26400246      1.57971646      1.72680360      0.88225020
    H      3.91076978     -1.92793912     -1.32545242      0.91110846
    H      2.42240556     -1.82245019     -0.40795327      0.91255773
    H      2.36114835     -2.26719411     -2.11245793      0.90674217
   36
Geometry Step: 4
    C      4.26606180     -0.63467654     -3.79013679      4.25096425
    C      3.44005309      0.28623039     -2.93431959      3.94881481
    C      3.36036797      1.63333653     -3.28856433      4.11197613
    C      2.62297519      2.52154313     -2.50358037      4.09725342
    C      2.57587787      3.95401825     -2.90418847      3.32787325
    O      2.45855051      4.33425128     -4.05296415      6.50466107
    O      2.70645270      4.83130763     -1.84517059      6.50036462
    C      1.91330692      2.07413814     -1.38437832      4.16000160
    C      1.94347349      0.71417817     -1.07083476      3.85336400
    N      1.22673471      0.27760599      0.12499052      5.07745779
    N     -0.00249141      0.00805783     -0.03904831      5.06963054
    C     -0.70110193     -0.41749878      1.16415458      3.83083841
    C     -0.76717175     -1.78695404      1.46865006      4.22425538
    C     -1.46633724     -2.17961496      2.61081037      3.58419055
    F     -1.51217935     -3.47660468      2.92379973      7.25397917
    C     -2.11371166     -1.26503115      3.43857365      4.19524646
    C     -2.04181603      0.09411060      3.10593107      4.05507972
    C     -2.73269448      1.06060343      3.98655875      3.32217671
    O     -3.29903638      0.79685732      5.04123073      6.56154189
    O     -2.72451614      2.34284804      3.52619642      6.50760530
    C     -1.34446085      0.53066201      1.96834795      4.15425003
    C      2.75728126     -0.18478732     -1.79041136      4.00649017
    C      2.86335737     -1.62960697     -1.38112022      4.24340286
    H      5.14419358     -0.97806646     -3.23680659      0.90835047
    H      3.68483316     -1.50254396     -4.10125866      0.90803972
    H      4.61651351     -0.13496109     -4.69045089      0.91231403
    H      3.87738500      2.01479822     -4.16376107      0.89486666
    H      2.95035704      4.37625951     -1.02493293      0.64722279
    H      1.30238373      2.75321617     -0.80210499      0.90762987
    H     -0.26103543     -2.51702125      0.86409339      0.88261176
    H     -2.65182256     -1.59565870      4.30964146      0.86407871
    H     -3.23036382      2.85350199      4.15949908      0.62020579
    H     -1.26375829      1.57920617      1.72663613      0.88259185
    H      3.91128187     -1.92765936     -1.32482700      0.91111553
    H      2.42269917     -1.82308916     -0.40748578      0.91284214
    H      2.36052220     -2.26691020     -2.11279735      0.90671259
   36
Geometry Step: 5
    C      4.26623617     -0.63614644     -3.78698306      4.24839091
    C      3.44575253      0.27894246     -2.93674033      3.94784073
    C      3.35765994      1.63002894     -3.28776627      4.11220415
    C      2.62180573      2.52590793     -2.50532400      4.09839451
    C      2.57931620      3.96460736     -2.89894038      3.32750846
    O      2.45916459      4.34506583     -4.04883928      6.51018641
    O      2.70593242      4.84064563     -1.85335926      6.48960525
    C      1.91452384      2.07064300     -1.38707071      4.16058958
    C      1.93740494      0.70636765     -1.06417552      3.85168946
    N      1.23185794      0.26914931      0.12343947      5.07452255
    N     -0.00155903      0.01012420     -0.04050145      5.06844273
    C     -0.68565894     -0.41865939      1.16395485      3.82963183
    C     -0.77038480     -1.78211725      1.46937630      4.22063881
    C     -1.46737395     -2.18468227      2.60921338      3.58380200
    F     -1.51173166     -3.48231562      2.92385365      7.25387303
    C     -2.10928274     -1.26902454      3.43304650      4.19185933
    C     -2.04476170      0.09228283      3.10955067      4.05661344
    C     -2.73368218      1.06716413      3.98426494      3.31860272
    O     -3.29860460      0.79469737      5.04089359      6.56838224
    O     -2.72244113      2.33936709      3.52472146      6.49772875
    C     -1.34572395      0.52212031      1.96740816      4.15456337
    C      2.75749368     -0.18519138     -1.79108151      4.00855558
    C      2.86409422     -1.62921240     -1.38296492      4.24476124
    H      5.14118680     -0.98275674     -3.23994479      0.90784171
    H      3.68847921     -1.50511009     -4.09829126      0.90824795
    H      4.61540437     -0.13351064     -4.68705547      0.91285781
    H      3.87683684      2.01293403     -4.16404226      0.89649065
    H      2.94593023      4.37623566     -1.02982161      0.64932658
    H      1.29979425      2.75631487     -0.80070966      0.91137992
    H     -0.25515535     -2.52461456      0.85592304      0.88767575
    H     -2.65726336     -1.59485855      4.31890521      0.86709025
    H     -3.23953071      2.87445762      4.16913530      0.62267866
    H     -1.26646687      1.58576905      1.72770722      0.88691250
    H      3.90904764     -1.93067537     -1.32908830      0.91096237
    H      2.41909230     -1.81828765     -0.40816750      0.91359001
    H      2.36477190     -2.26961618     -2.11055487      0.90655876
   36
Geometry Step: 6
    C      4.26618653     -0.63572801     -3.78788083      4.24911491
    C      3.44413008      0.28101710     -2.93605122      3.94812696
    C      3.35843083      1.63097051     -3.28799345      4.11213547
    C      2.62213864      2.52466541     -2.50482764      4.09807471
    C      2.57833742      3.96159298     -2.90043434      3.32761281
    O      2.45898978      4.34198728     -4.05001349      6.50860659
    O      2.70608052      4.83798740     -1.85102820      6.49266796
    C      1.91417742      2.07163796     -1.38630427      4.16042223
    C      1.93913246      0.70859106     -1.06607119      3.85217967
    N      1.23039952      0.27155666      0.12388100      5.07535139
    N     -0.00182445      0.00953597     -0.04008778      5.06877880
    C     -0.69005506     -0.41832900      1.16401171      3.82997088
    C     -0.76947015     -1.78349413      1.46916956      4.22169558
    C     -1.46707883     -2.18323977      2.60966800      3.58389936
    F     -1.51185911     -3.48068990      2.92383830      7.25390882
    C     -2.11054351     -1.26788775      3.43461990      4.19283161
    C     -2.04392316      0.09280314      3.10852028      4.05618105
    C     -2.73340102      1.06529651      3.98491791      3.31959984
    O     -3.29872751      0.79531224      5.04098956      6.56644559
    O     -2.72303182      2.34035801      3.52514133      6.50056564
    C     -1.34536439      0.52455185      1.96767569      4.15449239
    C      2.75743321     -0.18507636     -1.79089074      4.00795347
    C      2.86388446     -1.62932472     -1.38243979      4.24437678
    H      5.14204274     -0.98142157     -3.23905144      0.90798825
    H      3.68744129     -1.50437960     -4.09913598      0.90819005
    H      4.61572011     -0.13392354     -4.68802204      0.91270576
    H      3.87699288      2.01346471     -4.16396221      0.89602982
    H      2.94719040      4.37624245     -1.02842996      0.64872999
    H      1.30053139      2.75543277     -0.80110686      0.91031023
    H     -0.25682922     -2.52245299      0.85824888      0.88621528
    H     -2.65571454     -1.59508633      4.31626811      0.86622764
    H     -3.23692119      2.86849223      4.16639218      0.62194993
    H     -1.26569582      1.58390081      1.72740231      0.88567079
    H      3.90968366     -1.92981681     -1.32787524      0.91100584
    H      2.42011906     -1.81965449     -0.40797344      0.91338068
    H      2.36356215     -2.26884587     -2.11119323      0.90660325
   36
Geometry Step: 7
    C      4.26760395     -0.63881551     -3.78762850      4.25005882
    C      3.44489417      0.28003451     -2.93511577      3.94841120
    C      3.35635703      1.62879546     -3.28774827      4.11096133
    C      2.62185339      2.52858893     -2.50589480      4.10110779
    C      2.58065840      3.97138033     -2.89793521      3.32712996
    O      2.45978260      4.35181776     -4.04735145      6.51066575
    O      2.70737393      4.84251028     -1.85282732      6.48804401
    C      1.91211073      2.06739339     -1.38573755      4.16177157
    C      1.93879655      0.70535837     -1.06250458      3.84913593
    N      1.23603279      0.26417850      0.11675753      5.07383230
    N     -0.00089824      0.00996833     -0.03408912      5.06693079
    C     -0.68229683     -0.41713663      1.16237394      3.82749885
    C     -0.76607540     -1.78706951      1.46491546      4.22461279
    C     -1.46719597     -2.18821626      2.60757379      3.58417379
    F     -1.51140793     -3.48648820      2.92309609      7.25338477
    C     -2.11200899     -1.27107080      3.43778164      4.19427013
    C     -2.04489177      0.09281503      3.10813536      4.05521035
    C     -2.73406336      1.06722364      3.98292306      3.32000298
    O     -3.29929964      0.79339955      5.04232988      6.56681422
    O     -2.72937972      2.34922396      3.53289160      6.50280379
    C     -1.34445478      0.52140968      1.96672295      4.15548086
    C      2.75655858     -0.18610251     -1.79078259      4.00909060
    C      2.86399442     -1.62900800     -1.38322175      4.24440559
    H      5.14112037     -0.98674330     -3.24088981      0.90763976
    H      3.69031739     -1.50759460     -4.09658755      0.90788471
    H      4.61479708     -0.13252651     -4.68500287      0.91223410
    H      3.87627418      2.01113317     -4.16398448      0.89686084
    H      2.94162059      4.37970630     -1.03593944      0.64834815
    H      1.29994182      2.75627797     -0.80139986      0.91161948
    H     -0.25460286     -2.52508445      0.85420244      0.88548902
    H     -2.65773222     -1.59327547      4.32035401      0.86500866
    H     -3.23715209      2.87954036      4.16524746      0.62091052
    H     -1.26897037      1.58463629      1.72958069      0.88686027
    H      3.90880799     -1.93306493     -1.33157867      0.91092445
    H      2.41687341     -1.81505126     -0.40876411      0.91372422
    H      2.36682559     -2.27209771     -2.10993085      0.90669765
   36
Geometry Step: 8
    C      4.26989739     -0.64381119     -3.78722022      4.25160603
    C      3.44613049      0.27844465     -2.93360216      3.94885974
    C      3.35300155      1.62527616     -3.28735155      4.10904636
    C      2.62139185      2.53493731     -2.50762149      4.10605353
    C      2.58441384      3.98721659     -2.89389152      3.32636521
    O      2.46106541      4.36772382     -4.04304418      6.51399071
    O      2.70946671      4.84982844     -1.85573834      6.48043325
    C      1.90876674      2.06052553     -1.38482057      4.16399135
    C      1.93825303      0.70012776     -1.05673369      3.84426386
    N      1.24514762      0.25224040      0.10523152      5.07125855
    N      0.00060040      0.01066790     -0.02438308      5.06382355
    C     -0.66974374     -0.41520734      1.15972397      3.82357660
    C     -0.76058258     -1.79285459      1.45803218      4.22943520
    C     -1.46738551     -2.19626840      2.60418529      3.58455193
    F     -1.51067792     -3.49587004      2.92189516      7.25254236
    C     -2.11438020     -1.27622107      3.44289742      4.19669843
    C     -2.04645900      0.09283426      3.10751255      4.05358331
    C     -2.73513504      1.07034179      3.97969533      3.32068764
    O     -3.30022536      0.79030476      5.04449855      6.56723593
    O     -2.73965084      2.36356937      3.54543180      6.50665866
    C     -1.34298302      0.51632555      1.96518140      4.15714300
    C      2.75514339     -0.18776285     -1.79060760      4.01089577
    C      2.86417234     -1.62849554     -1.38448698      4.24450003
    H      5.13962795     -0.99535403     -3.24386436      0.90706659
    H      3.69497101     -1.51279657     -4.09246411      0.90738118
    H      4.61330360     -0.13026607     -4.68011774      0.91145565
    H      3.87511128      2.00736067     -4.16402052      0.89820904
    H      2.93260844      4.38531094     -1.04809003      0.64775461
    H      1.29898787      2.75764554     -0.80187394      0.91371695
    H     -0.25100054     -2.52934224      0.84765517      0.88431883
    H     -2.66099691     -1.59034543      4.32696513      0.86304961
    H     -3.23752571      2.89741662      4.16339528      0.61919858
    H     -1.27426870      1.58582633      1.73310538      0.88878819
    H      3.90739114     -1.93832050     -1.33757094      0.91076574
    H      2.41162185     -1.80760308     -0.41004346      0.91427120
    H      2.37210595     -2.27735928     -2.10788827      0.90682285
   36
Geometry Step: 9
    C      4.26812476     -0.63994995     -3.78753578      4.25040889
    C      3.44517492      0.27967348     -2.93477205      3.94851378
    C      3.35559505      1.62799628     -3.28765818      4.11052925
    C      2.62174858      2.53003055     -2.50628690      4.10222828
    C      2.58151121      3.97497650     -2.89701695      3.32696125
    O      2.46007391      4.35542978     -4.04637334      6.51141163
    O      2.70784917      4.84417212     -1.85348836      6.48632426
    C      1.91135136      2.06583380     -1.38552932      4.16226629
    C      1.93867312      0.70417058     -1.06119410      3.84801757
    N      1.23810263      0.26146754      0.11414015      5.07326273
    N     -0.00055792      0.01012719     -0.03188503      5.06624419
    C     -0.67944622     -0.41669852      1.16177217      3.82661155
    C     -0.76482806     -1.78838321      1.46335237      4.22569402
    C     -1.46723901     -2.19004478      2.60680431      3.58425496
    F     -1.51124216     -3.48861867      2.92282337      7.25319018
    C     -2.11254746     -1.27224035      3.43894335      4.19480218
    C     -2.04524766      0.09281940      3.10799393      4.05484978
    C     -2.73430672      1.06793172      3.98219009      3.32016208
    O     -3.29950986      0.79269677      5.04282235      6.56692117
    O     -2.73171213      2.35248158      3.53573929      6.50366053
    C     -1.34412057      0.52025515      1.96637289      4.15586230
    C      2.75623721     -0.18647955     -1.79074285      4.00950097
    C      2.86403482     -1.62889163     -1.38350906      4.24442326
    H      5.14078146     -0.98869866     -3.24156529      0.90751031
    H      3.69137416     -1.50877588     -4.09565118      0.90777059
    H      4.61445794     -0.13201320     -4.68389353      0.91206027
    H      3.87601010      2.01027650     -4.16399267      0.89716885
    H      2.93957406      4.38097903     -1.03869865      0.64821192
    H      1.29972519      2.75658853     -0.80150752      0.91210242
    H     -0.25378483     -2.52605133      0.85271566      0.88522041
    H     -2.65847358     -1.59261010      4.32185530      0.86455920
    H     -3.23723694      2.88359979      4.16482686      0.62052258
    H     -1.27017354      1.58490653      1.73038109      0.88730084
    H      3.90848625     -1.93425839     -1.33293942      0.91088992
    H      2.41568086     -1.81335989     -0.40905463      0.91385326
    H      2.36802468     -2.27329253     -2.10946701      0.90672837
   36
Geometry Step: 10
    C      4.26856678     -0.64287289     -3.78736131      4.25158511
    C      3.44272003      0.27918276     -2.93035453      3.94966506
    C      3.35242033      1.63176556     -3.28829316      4.11242954
    C      2.62011583      2.52973260     -2.50290550      4.10101644
    C      2.58334435      3.98297665     -2.89789789      3.33090948
    O      2.46156888      4.37138048     -4.04518677      6.50889586
    O      2.70973931      4.85581720     -1.85496862      6.48522936
    C      1.90833966      2.06720025     -1.38731575      4.16232877
    C      1.94409855      0.70328459     -1.06574857      3.84915257
    N      1.24274412      0.24765544      0.10676223      5.07288970
    N      0.00617028      0.01345757     -0.02380160      5.06521935
    C     -0.67642850     -0.42254069      1.16622766      3.82754312
    C     -0.75961787     -1.79439990      1.45996650      4.22623611
    C     -1.46738874     -2.19260708      2.60394352      3.58475330
    F     -1.51039005     -3.49598187      2.91997083      7.25533249
    C     -2.11365741     -1.27486302      3.44111159      4.19581441
    C     -2.04545656      0.08911127      3.10488488      4.05848345
    C     -2.74191815      1.07161201      3.98979434      3.31958992
    O     -3.29630711      0.79115310      5.03714800      6.55387655
    O     -2.73734466      2.36168743      3.54224723      6.51066678
    C     -1.34176483      0.52254070      1.96535674      4.15772062
    C      2.75672223     -0.18897474     -1.79195211      4.00781523
    C      2.86353085     -1.62985310     -1.38291561      4.24424707
    H      5.14247176     -0.99798560     -3.24258565      0.90819173
    H      3.69462806     -1.51512305     -4.09259926      0.90782593
    H      4.61363559     -0.13022826     -4.68019677      0.91142413
    H      3.87450557      2.00562216     -4.16344409      0.89609913
    H      2.93192816      4.38503794     -1.04410806      0.64881038
    H      1.30049063      2.75463241     -0.80322219      0.91088720
    H     -0.25131771     -2.52864036      0.84750054      0.88385113
    H     -2.65995926     -1.58994860      4.32594839      0.86457522
    H     -3.23957031      2.90093176      4.16654162      0.62114624
    H     -1.27564809      1.57991047      1.73471514      0.88458304
    H      3.90806020     -1.93917770     -1.33783269      0.91106904
    H      2.41140748     -1.80653037     -0.41088146      0.91293297
    H      2.37172539     -2.27891894     -2.10857627      0.90720358
   36
Geometry Step: 11
    C      4.26845685     -0.64214593     -3.78740470      4.25128870
    C      3.44333058      0.27930481     -2.93145320      3.94938228
    C      3.35320990      1.63082812     -3.28813524      4.11195596
    C      2.62052190      2.52980670     -2.50374648      4.10132419
    C      2.58288844      3.98098696     -2.89767880      3.32992218
    O      2.46119707      4.36741343     -4.04548188      6.50952267
    O      2.70926922      4.85292099     -1.85460047      6.48549973
    C      1.90908869      2.06686040     -1.38687145      4.16231588
    C      1.94274921      0.70350494     -1.06461584      3.84887169
    N      1.24158975      0.25109061      0.10859717      5.07297467
    N      0.00449693      0.01262928     -0.02581201      5.06546255
    C     -0.67717903     -0.42108770      1.16511955      3.82732091
    C     -0.76091368     -1.79290351      1.46080859      4.22610786
    C     -1.46735150     -2.19196982      2.60465502      3.58462057
    F     -1.51060198     -3.49415059      2.92068027      7.25480409
    C     -2.11338136     -1.27421074      3.44057233      4.19556155
    C     -2.04540460      0.09003351      3.10565812      4.05757216
    C     -2.74002514      1.07069669      3.98790311      3.31968979
    O     -3.29710366      0.79153702      5.03855925      6.55717550
    O     -2.73594381      2.35939787      3.54062866      6.50891333
    C     -1.34235072      0.52197227      1.96560947      4.15726017
    C      2.75660160     -0.18835417     -1.79165136      4.00823789
    C      2.86365619     -1.62961398     -1.38306321      4.24428419
    H      5.14205137     -0.99567587     -3.24233188      0.90802495
    H      3.69381879     -1.51354446     -4.09335829      0.90781462
    H      4.61384011     -0.13067218     -4.68111618      0.91158252
    H      3.87487976      2.00677973     -4.16358052      0.89636578
    H      2.93382975      4.38402846     -1.04276270      0.64866255