   35
Geometry Step: 0
    C      4.41003391     -0.78217769      4.03241837      3.95258939
    O      4.48704090      0.14578260      2.96416667      6.29635324
    C      3.77559906     -0.09232880      1.82812142      3.69143735
    C      2.94520043     -1.21299022      1.65044326      4.19406298
    C      2.23912260     -1.38894174      0.44529692      3.96031962
    C      1.41830524     -2.56863344      0.31706310      3.82480209
    N      0.77366462     -3.52600979      0.29829315      5.28200751
    C      2.34429545     -0.43547762     -0.59913405      3.89717886
    N      1.85230629     -0.71529969     -1.91647927      5.04123015
    N      0.63589906     -0.90791326     -2.17649651      5.02805752
    C     -0.38641229     -0.60311626     -1.22515919      3.84646079
    C     -0.45575328      0.68246765     -0.65704640      4.12529724
    C     -1.53609500      1.02935808      0.15204604      4.05908450
    C     -2.55523141      0.10600382      0.40680150      4.09494773
    C     -2.50910418     -1.15928146     -0.17639958      4.06745615
    C     -1.44372319     -1.52563920     -1.01554035      4.10202844
    C     -1.40850274     -2.85800924     -1.67478419      3.32234814
    O     -0.55930362     -3.22756099     -2.48092154      6.55104558
    O     -2.44658754     -3.69170676     -1.35733464      6.51378461
    C      3.21178211      0.67805818     -0.41713340      4.10891165
    C      3.31753527      1.69330934     -1.49766359      3.32515263
    O      2.59572604      1.73638662     -2.49087576      6.55509219
    O      4.28787726      2.63875932     -1.32288154      6.50887952
    C      3.89955676      0.85127048      0.79158900      4.16746171
    H      4.76500394     -1.77701170      3.72334137      0.94804210
    H      3.37958875     -0.87444550      4.40807508      0.94958790
    H      5.05019103     -0.40872370      4.83571419      0.93337516
    H      2.83907711     -1.96287953      2.42780753      0.89832291
    H      0.32296889      1.40671325     -0.88132486      0.89947936
    H     -1.58610555      2.02517121      0.58629689      0.91690965
    H     -3.38991744      0.37994322      1.04639294      0.91477911
    H     -3.30730066     -1.87413149      0.00463590      0.90005489
    H     -2.31939203     -4.53248554     -1.82487860      0.62267046
    H      4.27382823      3.24597562     -2.07981913      0.62180528
    H      4.53960559      1.71835249      0.92498130      0.87898357
   35
Geometry Step: 1
    C      4.40987856     -0.78226613      4.03241317      3.95266149
    O      4.48701769      0.14587363      2.96415301      6.29648659
    C      3.77559465     -0.09222896      1.82797748      3.69138970
    C      2.94521113     -1.21300774      1.65045308      4.19408006
    C      2.23898441     -1.38896856      0.44521437      3.96036354
    C      1.41841474     -2.56834009      0.31713885      3.82474823
    N      0.77349896     -3.52625521      0.29830976      5.28211606
    C      2.34434624     -0.43552226     -0.59914302      3.89710174
    N      1.85226156     -0.71534033     -1.91637078      5.04114288
    N      0.63599338     -0.90785627     -2.17649698      5.02803543
    C     -0.38649940     -0.60305933     -1.22513957      3.84649310
    C     -0.45563323      0.68245572     -0.65698918      4.12526639
    C     -1.53589097      1.02946077      0.15208429      4.05914088
    C     -2.55520689      0.10603575      0.40673956      4.09498214
    C     -2.50911815     -1.15943372     -0.17637159      4.06751886
    C     -1.44368812     -1.52547171     -1.01546502      4.10189007
    C     -1.40850759     -2.85794461     -1.67467618      3.32243065
    O     -0.55917174     -3.22765090     -2.48113252      6.55121881
    O     -2.44652335     -3.69170692     -1.35731268      6.51366145
    C      3.21176860      0.67809104     -0.41716184      4.10899646
    C      3.31757789      1.69331004     -1.49764744      3.32513080
    O      2.59566262      1.73639431     -2.49096498      6.55526857
    O      4.28781016      2.63861792     -1.32276964      6.50871068
    C      3.89954369      0.85106385      0.79169270      4.16735809
    H      4.76493791     -1.77686468      3.72326937      0.94797584
    H      3.37954322     -0.87437941      4.40810123      0.94953124
    H      5.05016958     -0.40868755      4.83566870      0.93339016
    H      2.83915393     -1.96290021      2.42779401      0.89829885
    H      0.32295740      1.40663037     -0.88120851      0.89945449
    H     -1.58597468      2.02509768      0.58643347      0.91686243
    H     -3.38991608      0.37986489      1.04640710      0.91478089
    H     -3.30730963     -1.87415688      0.00456715      0.90000126
    H     -2.31949584     -4.53245113     -1.82495035      0.62264982
    H      4.27380541      3.24597960     -2.07989945      0.62182302
    H      4.53958352      1.71840534      0.92489451      0.87903932
   35
Geometry Step: 2
    C      4.41000362     -0.78219493      4.03241736      3.95260469
    O      4.48703637      0.14580035      2.96416401      6.29637836
    C      3.77559820     -0.09230934      1.82809336      3.69143016
    C      2.94520251     -1.21299364      1.65044517      4.19406874
    C      2.23909566     -1.38894697      0.44528082      3.96033052
    C      1.41832659     -2.56857624      0.31707787      3.82479129
    N      0.77363232     -3.52605764      0.29829639      5.28202812
    C      2.34430535     -0.43548633     -0.59913580      3.89715857
    N      1.85229757     -0.71530761     -1.91645812      5.04120743
    N      0.63591745     -0.90790215     -2.17649660      5.02804940
    C     -0.38642927     -0.60310516     -1.22515537      3.84646825
    C     -0.45572987      0.68246533     -0.65703525      4.12529292
    C     -1.53605522      1.02937810      0.15205350      4.05909688
    C     -2.55522663      0.10601004      0.40678942      4.09495425
    C     -2.50910690     -1.15931115     -0.17639412      4.06747390
    C     -1.44371635     -1.52560654     -1.01552567      4.10199944
    C     -1.40850369     -2.85799664     -1.67476313      3.32236233
    O     -0.55927791     -3.22757852     -2.48096267      6.55107756
    O     -2.44657503     -3.69170679     -1.35733036      6.51376156
    C      3.21177948      0.67806459     -0.41713894      4.10893131
    C      3.31754358      1.69330948     -1.49766044      3.32514823
    O      2.59571367      1.73638812     -2.49089316      6.55512624
    O      4.28786417      2.63873175     -1.32285972      6.50884581
    C      3.89955421      0.85123019      0.79160921      4.16744373
    H      4.76499106     -1.77698304      3.72332734      0.94802890
    H      3.37957987     -0.87443261      4.40808018      0.94957668
    H      5.05018684     -0.40871665      4.83570532      0.93337841
    H      2.83909209     -1.96288356      2.42780489      0.89831861
    H      0.32296665      1.40669709     -0.88130217      0.89947423
    H     -1.58608003      2.02515688      0.58632352      0.91690083
    H     -3.38991717      0.37992795      1.04639570      0.91477931
    H     -3.30730241     -1.87413644      0.00462250      0.90004419
    H     -2.31941227     -4.53247883     -1.82489259      0.62266637
    H      4.27382378      3.24597640     -2.07983479      0.62180849
    H      4.53960129      1.71836280      0.92496438      0.87899427
   35
Geometry Step: 3
    C      4.40996619     -0.78220657      4.03241653      3.95262148
    O      4.48702673      0.14582384      2.96415966      6.29639418
    C      3.77559433     -0.09230264      1.82807579      3.69142315
    C      2.94520254     -1.21299505      1.65043737      4.19406604
    C      2.23907571     -1.38893930      0.44527473      3.96034043
    C      1.41828616     -2.56859662      0.31709389      3.82479259
    N      0.77364202     -3.52604262      0.29830368      5.28202038
    C      2.34431905     -0.43549264     -0.59914276      3.89714622
    N      1.85229650     -0.71531715     -1.91642614      5.04120184
    N      0.63592830     -0.90788816     -2.17649744      5.02805858
    C     -0.38644203     -0.60308556     -1.22515375      3.84647230
    C     -0.45569920      0.68246246     -0.65701667      4.12528659
    C     -1.53600961      1.02939229      0.15206671      4.05910623
    C     -2.55521414      0.10601678      0.40676907      4.09495380
    C     -2.50910847     -1.15933367     -0.17638015      4.06747906
    C     -1.44370913     -1.52557774     -1.01551078      4.10198917
    C     -1.40847841     -2.85799155     -1.67475906      3.32237030
    O     -0.55926963     -3.22758999     -2.48099472      6.55107958
    O     -2.44655336     -3.69170181     -1.35732348      6.51375963
    C      3.21177425      0.67806620     -0.41714229      4.10894606
    C      3.31754375      1.69330659     -1.49766611      3.32514479
    O      2.59570486      1.73639009     -2.49090692      6.55514738
    O      4.28784763      2.63870649     -1.32284296      6.50882414
    C      3.89955645      0.85119986      0.79161346      4.16743339
    H      4.76497292     -1.77694737      3.72330457      0.94801602
    H      3.37956201     -0.87441433      4.40808873      0.94956494
    H      5.05017755     -0.40870866      4.83568984      0.93338031
    H      2.83911433     -1.96289002      2.42780190      0.89832007
    H      0.32296977      1.40667718     -0.88127008      0.89946968
    H     -1.58604098      2.02514109      0.58636534      0.91689402
    H     -3.38991528      0.37990599      1.04639880      0.91478443
    H     -3.30730806     -1.87414759      0.00460328      0.90003492
    H     -2.31944128     -4.53246853     -1.82491418      0.62266579
    H      4.27381768      3.24596642     -2.07984382      0.62181163
    H      4.53959045      1.71837058      0.92494001      0.87900090
   35
Geometry Step: 4
    C      4.40990562     -0.78222541      4.03241518      3.95264819
    O      4.48701112      0.14586185      2.96415262      6.29642121
    C      3.77558807     -0.09229180      1.82804737      3.69141633
    C      2.94520259     -1.21299734      1.65042475      4.19406248
    C      2.23904343     -1.38892689      0.44526488      3.96035663
    C      1.41822075     -2.56862958      0.31711981      3.82479555
    N      0.77365772     -3.52601831      0.29831549      5.28200676
    C      2.34434122     -0.43550287     -0.59915403      3.89712271
    N      1.85229477     -0.71533259     -1.91637439      5.04118809
    N      0.63594586     -0.90786552     -2.17649879      5.02807016
    C     -0.38646268     -0.60305386     -1.22515113      3.84647795
    C     -0.45564958      0.68245783     -0.65698663      4.12527563
    C     -1.53593581      1.02941524      0.15208808      4.05912054
    C     -2.55519394      0.10602768      0.40673615      4.09495440
    C     -2.50911100     -1.15937013     -0.17635755      4.06749075
    C     -1.44369744     -1.52553113     -1.01548670      4.10197463
    C     -1.40843752     -2.85798332     -1.67475247      3.32238519
    O     -0.55925625     -3.22760854     -2.48104658      6.55108081
    O     -2.44651831     -3.69169374     -1.35731236      6.51375675
    C      3.21176581      0.67806880     -0.41714771      4.10896951
    C      3.31754403      1.69330191     -1.49767529      3.32513978
    O      2.59569061      1.73639327     -2.49092919      6.55517878
    O      4.28782087      2.63866562     -1.32281582      6.50879058
    C      3.89956008      0.85115077      0.79162033      4.16742071
    H      4.76494356     -1.77688965      3.72326775      0.94799515
    H      3.37953311     -0.87438476      4.40810258      0.94954594
    H      5.05016250     -0.40869572      4.83566480      0.93338299
    H      2.83915031     -1.96290046      2.42779704      0.89832196
    H      0.32297482      1.40664495     -0.88121815      0.89946194
    H     -1.58597779      2.02511555      0.58643300      0.91688292
    H     -3.38991221      0.37987045      1.04640383      0.91479238
    H     -3.30731719     -1.87416563      0.00457218      0.90002024
    H     -2.31948821     -4.53245185     -1.82494911      0.62266448
    H      4.27380780      3.24595027     -2.07985843      0.62181639
    H      4.53957290      1.71838317      0.92490058      0.87901150
   35
Geometry Step: 5
    C      4.40992632     -0.78221897      4.03241564      3.95263837
    O      4.48701645      0.14584886      2.96415503      6.29640759
    C      3.77559021     -0.09229551      1.82805709      3.69141903
    C      2.94520257     -1.21299656      1.65042907      4.19406542
    C      2.23905446     -1.38893113      0.44526825      3.96034896
    C      1.41824311     -2.56861831      0.31711095      3.82479247
    N      0.77365235     -3.52602662      0.29831146      5.28201475
    C      2.34433364     -0.43549937     -0.59915018      3.89713340
    N      1.85229536     -0.71532731     -1.91639208      5.04119445
    N      0.63593986     -0.90787326     -2.17649833      5.02806432
    C     -0.38645562     -0.60306470     -1.22515202      3.84647500
    C     -0.45566654      0.68245941     -0.65699690      4.12528134
    C     -1.53596104      1.02940740      0.15208078      4.05911532
    C     -2.55520085      0.10602395      0.40674740      4.09495248
    C     -2.50911014     -1.15935767     -0.17636528      4.06748716
    C     -1.44370144     -1.52554706     -1.01549493      4.10198101
    C     -1.40845149     -2.85798614     -1.67475472      3.32237854
    O     -0.55926082     -3.22760220     -2.48102886      6.55107971
    O     -2.44653029     -3.69169650     -1.35731616      6.51375878
    C      3.21176869      0.67806791     -0.41714586      4.10895822
    C      3.31754394      1.69330351     -1.49767216      3.32514241
    O      2.59569548      1.73639219     -2.49092158      6.55516261
    O      4.28783002      2.63867959     -1.32282510      6.50880650
    C      3.89955884      0.85116755      0.79161798      4.16742714
    H      4.76495359     -1.77690938      3.72328033      0.94800378
    H      3.37954299     -0.87439487      4.40809784      0.94955378
    H      5.05016765     -0.40870014      4.83567336      0.93338131
    H      2.83913801     -1.96289689      2.42779870      0.89832162
    H      0.32297310      1.40665597     -0.88123590      0.89946487
    H     -1.58599939      2.02512428      0.58640987      0.91688727
    H     -3.38991326      0.37988260      1.04640211      0.91478920
    H     -3.30731407     -1.87415946      0.00458281      0.90002621
    H     -2.31947217     -4.53245755     -1.82493717      0.62266492
    H      4.27381117      3.24595579     -2.07985344      0.62181450
    H      4.53957890      1.71837887      0.92491406      0.87900756
   35
Geometry Step: 6
    C      4.40986002     -0.78220293      4.03241373      3.95266011
    O      4.48698152      0.14589089      2.96414732      6.29640608
    C      3.77558136     -0.09231427      1.82805998      3.69143598
    C      2.94519409     -1.21300094      1.65039646      4.19405272
    C      2.23901569     -1.38892751      0.44528265      3.96035807
    C      1.41819510     -2.56859361      0.31714694      3.82479299
    N      0.77363240     -3.52605294      0.29832949      5.28201977
    C      2.34435728     -0.43550973     -0.59916084      3.89710586
    N      1.85231122     -0.71534696     -1.91633076      5.04119437
    N      0.63593551     -0.90784552     -2.17649952      5.02809546
    C     -0.38645762     -0.60301844     -1.22515812      3.84647697
    C     -0.45560714      0.68245600     -0.65694486      4.12527416
    C     -1.53588954      1.02940229      0.15212074      4.05911641
    C     -2.55516620      0.10603885      0.40670416      4.09493926
    C     -2.50910292     -1.15936518     -0.17632683      4.06747841
    C     -1.44368686     -1.52552947     -1.01547971      4.10199581
    C     -1.40836243     -2.85798669     -1.67477827      3.32236583
    O     -0.55927808     -3.22760671     -2.48106647      6.55103046
    O     -2.44647403     -3.69167815     -1.35729808      6.51379524
    C      3.21175753      0.67805960     -0.41714909      4.10896882
    C      3.31751881      1.69328421     -1.49769823      3.32514026
    O      2.59568986      1.73639608     -2.49093588      6.55515905
    O      4.28780093      2.63865862     -1.32282054      6.50881034
    C      3.89957547      0.85115572      0.79157831      4.16743089
    H      4.76491175     -1.77684430      3.72322060      0.94799046
    H      3.37948750     -0.87435324      4.40812026      0.94953906
    H      5.05013623     -0.40868822      4.83563064      0.93337713
    H      2.83919073     -1.96291039      2.42778915      0.89833266
    H      0.32300361      1.40662341     -0.88116401      0.89946121
    H     -1.58590197      2.02509896      0.58651593      0.91688838
    H     -3.38989915      0.37983196      1.04640286      0.91480361
    H     -3.30733295     -1.87419245      0.00453925      0.90001840
    H     -2.31953980     -4.53242899     -1.82498971      0.62266984
    H      4.27379800      3.24590722     -2.07984310      0.62181442
    H      4.53954369      1.71838114      0.92485763      0.87900150
   35
Geometry Step: 7
    C      4.40975276     -0.78217696      4.03241063      3.95269427
    O      4.48692499      0.14595888      2.96413485      6.29639392
    C      3.77556704     -0.09234464      1.82806466      3.69145754
    C      2.94518036     -1.21300804      1.65034370      4.19404092
    C      2.23895296     -1.38892165      0.44530596      3.96037125
    C      1.41811742     -2.56855363      0.31720517      3.82479026
    N      0.77360013     -3.52609553      0.29835866      5.28203155
    C      2.34439552     -0.43552649     -0.59917809      3.89707056
    N      1.85233689     -0.71537876     -1.91623155      5.04119335
    N      0.63592847     -0.90780065     -2.17650146      5.02813496
    C     -0.38646085     -0.60294359     -1.22516799      3.84648043
    C     -0.45551104      0.68245047     -0.65686067      4.12526553
    C     -1.53577386      1.02939403      0.15218540      4.05911587
    C     -2.55511014      0.10606295      0.40663419      4.09491458
    C     -2.50909124     -1.15937734     -0.17626463      4.06747481
    C     -1.44366327     -1.52550102     -1.01545507      4.10202481
    C     -1.40821833     -2.85798759     -1.67481636      3.32235184
    O     -0.55930600     -3.22761401     -2.48112734      6.55094450
    O     -2.44638300     -3.69164846     -1.35726881      6.51385516
    C      3.21173947      0.67804614     -0.41715433      4.10898043
    C      3.31747815      1.69325298     -1.49774042      3.32513953
    O      2.59568077      1.73640237     -2.49095904      6.55513975
    O      4.28775387      2.63862469     -1.32281316      6.50882521
    C      3.89960237      0.85113659      0.79151414      4.16744164
    H      4.76484405     -1.77673899      3.72312396      0.94797169
    H      3.37939772     -0.87428590      4.40815652      0.94951823
    H      5.05008541     -0.40866894      4.83556151      0.93336968
    H      2.83927602     -1.96293224      2.42777370      0.89835063
    H      0.32305297      1.40657073     -0.88104768      0.89945407
    H     -1.58574435      2.02505800      0.58668755      0.91688914
    H     -3.38987634      0.37975002      1.04640408      0.91482391
    H     -3.30736350     -1.87424581      0.00446877      0.90000759
    H     -2.31964922     -4.53238278     -1.82507473      0.62267600
    H      4.27377669      3.24582864     -2.07982636      0.62181345
    H      4.53948672      1.71838482      0.92476631      0.87899294
   35
Geometry Step: 8
    C      4.40976566     -0.78218009      4.03241100      3.95269010
    O      4.48693179      0.14595070      2.96413635      6.29639602
    C      3.77556877     -0.09234099      1.82806410      3.69145364
    C      2.94518201     -1.21300718      1.65035005      4.19404185
    C      2.23896051     -1.38892236      0.44530316      3.96036926
    C      1.41812676     -2.56855844      0.31719817      3.82479043
    N      0.77360401     -3.52609041      0.29835515      5.28203010
    C      2.34439092     -0.43552447     -0.59917601      3.89707748
    N      1.85233380     -0.71537493     -1.91624348      5.04119353
    N      0.63592932     -0.90780605     -2.17650122      5.02812722
    C     -0.38646046     -0.60295259     -1.22516681      3.84647829
    C     -0.45552260      0.68245113     -0.65687079      4.12526753
    C     -1.53578777      1.02939502      0.15217762      4.05911618
    C     -2.55511688      0.10606005      0.40664260      4.09491854
    C     -2.50909265     -1.15937588     -0.17627212      4.06747591
    C     -1.44366611     -1.52550444     -1.01545804      4.10202005
    C     -1.40823566     -2.85798748     -1.67481178      3.32235354
    O     -0.55930264     -3.22761313     -2.48112001      6.55096270
    O     -2.44639395     -3.69165203     -1.35727233      6.51384268
    C      3.21174164      0.67804776     -0.41715370      4.10897870
    C      3.31748304      1.69325674     -1.49773535      3.32513926
    O      2.59568186      1.73640161     -2.49095625      6.55514414
    O      4.28775953      2.63862877     -1.32281405      6.50882232
    C      3.89959914      0.85113889      0.79152186      4.16743957
    H      4.76485219     -1.77675166      3.72313559      0.94797407
    H      3.37940852     -0.87429400      4.40815216      0.94952096
    H      5.05009152     -0.40867126      4.83556983      0.93337063
    H      2.83926576     -1.96292961      2.42777555      0.89834826
    H      0.32304703      1.40657706     -0.88106167      0.89945518
    H     -1.58576331      2.02506293      0.58666690      0.91688891
    H     -3.38987908      0.37975988      1.04640393      0.91482090
    H     -3.30735983     -1.87423939      0.00447725      0.90000869
    H     -2.31963606     -4.53238834     -1.82506450      0.62267538
    H      4.27377926      3.24583810     -2.07982838      0.62181370
    H      4.53949357      1.71838438      0.92477730      0.87899428
   35
Geometry Step: 9
    C      4.40964436     -0.78203928      4.03238707      3.95265853
    O      4.48680714      0.14601212      2.96414956      6.29637345
    C      3.77555738     -0.09234737      1.82802540      3.69146876
    C      2.94517782     -1.21304219      1.65034456      4.19405618
    C      2.23887544     -1.38890657      0.44532803      3.96036400
    C      1.41798427     -2.56852925      0.31727750      3.82480367
    N      0.77356570     -3.52612629      0.29840817      5.28201368
    C      2.34439818     -0.43558730     -0.59913595      3.89708302
    N      1.85231321     -0.71542887     -1.91618811      5.04118367
    N      0.63596133     -0.90774054     -2.17648317      5.02810275
    C     -0.38643834     -0.60289420     -1.22519568      3.84648698
    C     -0.45541009      0.68244879     -0.65672001      4.12528219
    C     -1.53568168      1.02934471      0.15231948      4.05907863
    C     -2.55508051      0.10610503      0.40661470      4.09491840
    C     -2.50902661     -1.15938160     -0.17623925      4.06747243
    C     -1.44359907     -1.52553176     -1.01546235      4.10200593
    C     -1.40814447     -2.85794192     -1.67477870      3.32234826
    O     -0.55923993     -3.22763119     -2.48129564      6.55105243
    O     -2.44625493     -3.69161820     -1.35722224      6.51381468
    C      3.21172524      0.67802100     -0.41720112      4.10896728
    C      3.31742601      1.69319140     -1.49775253      3.32514912
    O      2.59564379      1.73640197     -2.49102321      6.55515086
    O      4.28770436      2.63860400     -1.32281957      6.50885161
    C      3.89963232      0.85112424      0.79143397      4.16744141
    H      4.76473866     -1.77663348      3.72297445      0.94800711
    H      3.37924306     -0.87418859      4.40820758      0.94954461
    H      5.04999984     -0.40864878      4.83546840      0.93335944
    H      2.83939501     -1.96295038      2.42772734      0.89833169
    H      0.32320625      1.40655005     -0.88088808      0.89945259
    H     -1.58550090      2.02500277      0.58695025      0.91690249
    H     -3.38979976      0.37964111      1.04637592      0.91480411
    H     -3.30739379     -1.87430367      0.00437477      0.90002045
    H     -2.31980739     -4.53228754     -1.82519423      0.62266920
    H      4.27374845      3.24571014     -2.07979365      0.62180175
    H      4.53940925      1.71838993      0.92463839      0.87897863
   35
Geometry Step: 10
    C      4.40944810     -0.78181146      4.03234834      3.95260790
    O      4.48660544      0.14611148      2.96417094      6.29633923
    C      3.77553896     -0.09235769      1.82796278      3.69149366
    C      2.94517105     -1.21309883      1.65033570      4.19407879
    C      2.23873781     -1.38888104      0.44536828      3.96035467
    C      1.41775371     -2.56848203      0.31740586      3.82482477
    N      0.77350373     -3.52618434      0.29849395      5.28198718
    C      2.34440994     -0.43568894     -0.59907112      3.89709453
    N      1.85227988     -0.71551615     -1.91609852      5.04116489
    N      0.63601313     -0.90763455     -2.17645395      5.02805442
    C     -0.38640256     -0.60279973     -1.22524240      3.84649459
    C     -0.45522805      0.68244500     -0.65647602      4.12530716
    C     -1.53551001      1.02926330      0.15254902      4.05901881
    C     -2.55502167      0.10617782      0.40656955      4.09492186
    C     -2.50891976     -1.15939087     -0.17618607      4.06747220
    C     -1.44349060     -1.52557597     -1.01546934      4.10198278
    C     -1.40799692     -2.85786819     -1.67472518      3.32234069
    O     -0.55913848     -3.22766042     -2.48157980      6.55120973
    O     -2.44603000     -3.69156346     -1.35714118      6.51376041
    C      3.21169870      0.67797770     -0.41727784      4.10894707
    C      3.31733374      1.69308568     -1.49778033      3.32516401
    O      2.59558220      1.73640255     -2.49113155      6.55516546
    O      4.28761508      2.63856392     -1.32282850      6.50889754
    C      3.89968602      0.85110054      0.79129177      4.16744495
    H      4.76455496     -1.77644227      3.72271372      0.94806037
    H      3.37897534     -0.87401803      4.40829725      0.94958289
    H      5.04985150     -0.40861240      4.83530429      0.93334119
    H      2.83960415     -1.96298398      2.42764933      0.89830498
    H      0.32346388      1.40650635     -0.88060720      0.89944840
    H     -1.58507631      2.02490544      0.58740870      0.91692393
    H     -3.38967142      0.37944895      1.04633059      0.91477598
    H     -3.30744873     -1.87440768      0.00420896      0.90003886
    H     -2.32008462     -4.53212444     -1.82540414      0.62265936
    H      4.27369861      3.24550311     -2.07973746      0.62178280
    H      4.53927280      1.71839892      0.92441364      0.87895396
   35
Geometry Step: 11
    C      4.40959808     -0.78198556      4.03237793      3.95264685
    O      4.48675957      0.14603555      2.96415460      6.29636522
    C      3.77555304     -0.09234980      1.82801063      3.69147686
    C      2.94517623     -1.21305555      1.65034247      4.19406179
    C      2.23884299     -1.38890055      0.44533752      3.96036155
    C      1.41792989     -2.56851812      0.31730777      3.82480874
    N      0.77355109     -3.52613998      0.29842840      5.28200664
    C      2.34440096     -0.43561127     -0.59912066      3.89708490
    N      1.85230535     -0.71544946     -1.91616698      5.04118010
    N      0.63597355     -0.90771555     -2.17647628      5.02808323
    C     -0.38642991     -0.60287192     -1.22520670      3.84648249
    C     -0.45536716      0.68244790     -0.65666247      4.12528829
    C     -1.53564119      1.02932551      0.15237361      4.05906693
    C     -2.55506664      0.10612220      0.40660405      4.09492254
    C     -2.50900141     -1.15938379     -0.17622671      4.06747698
    C     -1.44357349     -1.52554219     -1.01546400      4.10199811
    C     -1.40810967     -2.85792453     -1.67476608      3.32234590
    O     -0.55921601     -3.22763808     -2.48136265      6.55109003
    O     -2.44620189     -3.69160529     -1.35720312      6.51380218
    C      3.21171898      0.67801079     -0.41721921      4.10896299
    C      3.31740425      1.69316647     -1.49775908      3.32515379
    O      2.59562927      1.73640211     -2.49104876      6.55515425
    O      4.28768330      2.63859455     -1.32282167      6.50886256
    C      3.89964499      0.85111865      0.79140044      4.16744386
    H      4.76469534     -1.77658839      3.72291296      0.94801976
    H      3.37917992     -0.87414837      4.40822873      0.94955365
    H      5.04996486     -0.40864020      4.83542970      0.93335477
    H      2.83944433     -1.96295830      2.42770894      0.89832553
    H      0.32326701      1.40653975     -0.88082184      0.89945183
    H     -1.58540077      2.02497982      0.58705836      0.91690762
    H     -3.38976950      0.37959580      1.04636523      0.91479761
    H     -3.30740674     -1.87432820      0.00433567      0.90002514
    H     -2.31987277     -4.53224908     -1.82524373      0.62266697
    H      4.27373670      3.24566132     -2.07978040      0.62179739
    H      4.53937707      1.71839205      0.92458539      0.87897294
   35
Geometry Step: 12
    C      4.40940872     -0.78181036      4.03229429      3.95258382
    O      4.48655118      0.14613266      2.96416518      6.29637227
    C      3.77553874     -0.09231107      1.82788939      3.69145972
    C      2.94520816     -1.21306435      1.65037285      4.19406963