   36
Geometry Step: 0
    C      4.26834632     -0.63540676     -3.78926981      4.24792251
    C      3.43672018      0.28655197     -2.93668248      3.94799903
    C      3.35854580      1.64365237     -3.28424903      4.11472657
    C      2.62246233      2.53366588     -2.50141976      4.09788605
    C      2.57268454      3.95657269     -2.89922435      3.31421563
    O      2.45859373      4.31910528     -4.05594152      6.52216179
    O      2.70438976      4.80075774     -1.85510644      6.48692679
    C      1.91645712      2.07226640     -1.39118536      4.16923800
    C      1.94626074      0.71371912     -1.04623112      3.84824339
    N      1.22186314      0.29414615      0.09027295      5.06865209
    N      0.00000000      0.00000000      0.00000000      5.06635518
    C     -0.66853544      0.08369771     -1.23676358      3.82174657
    C     -0.73283378     -1.02858381     -2.07916409      4.22829789
    C     -1.41361169     -0.94537402     -3.28774527      3.58401372
    F     -1.45306451     -2.01458469     -4.09294262      7.25658556
    C     -2.05339578      0.22448172     -3.67449852      4.19325760
    C     -2.02118529      1.33385028     -2.82618388      4.05426085
    C     -2.71163349      2.56935603     -3.26038591      3.31642015
    O     -3.38998897      2.68857302     -4.26264016      6.56124491
    O     -2.50144054      3.59878422     -2.42266659      6.49471195
    C     -1.34473645      1.25487833     -1.60133621      4.15974748
    C      2.75165587     -0.17996999     -1.78881406      4.01577162
    C      2.86389980     -1.62933118     -1.38406576      4.24578901
    H      5.14828875     -0.97324216     -3.23311858      0.90756271
    H      3.67876780     -1.50172007     -4.10548402      0.90781568
    H      4.61893260     -0.13448575     -4.69802782      0.91344162
    H      3.87961824      2.01655015     -4.16613569      0.89489429
    H      2.95664046      4.37741590     -1.01283736      0.64491384
    H      1.30414313      2.75092614     -0.80202096      0.91280332
    H     -0.25207000     -1.96010555     -1.79869813      0.88997204
    H     -2.57381133      0.26025393     -4.62799372      0.86879415
    H     -2.97401812      4.34900672     -2.84313314      0.62261107
    H     -1.33043859      2.10488227     -0.92332946      0.89011964
    H      3.91608683     -1.92537368     -1.31922062      0.90985217
    H      2.42481465     -1.82876898     -0.40240527      0.91327105
    H      2.35495889     -2.26443732     -2.11576190      0.90777407
   36
Geometry Step: 1
    C      4.26441132     -0.63449791     -3.79422790      4.25823812
    C      3.43935244      0.29826120     -2.93436718      3.95102118
    C      3.36374869      1.61948363     -3.29135328      4.10060140
    C      2.62616606      2.51004543     -2.51000635      4.09884384
    C      2.57746598      3.94159686     -2.90952211      3.34603727
    O      2.45740013      4.34440523     -4.05794080      6.48433048
    O      2.71066174      4.85542323     -1.82266414      6.52010379
    C      1.90545539      2.06726864     -1.36901540      4.14979956
    C      1.97254079      0.73296188     -1.11542657      3.87834541
    N      1.21475919      0.26347952      0.14949095      5.08324784
    N      0.01047294     -0.00263864      0.06085623      5.07368586
    C     -0.68699600      0.09702420     -1.29389939      3.85374313
    C     -0.71501990     -1.07016903     -2.06929135      4.21958603
    C     -1.41815979     -0.95098030     -3.29220400      3.59033279
    F     -1.45174837     -2.01497418     -4.09088393      7.25011309
    C     -2.06669956      0.21403828     -3.70764289      4.18457248
    C     -2.02320988      1.31274796     -2.82956661      4.03586737
    C     -2.67315498      2.53244855     -3.22189577      3.34921579
    O     -3.41963629      2.69768603     -4.30310025      6.59083094
    O     -2.53300410      3.66964573     -2.43785054      6.50441368
    C     -1.34524178      1.27439916     -1.58539886      4.15057628
    C      2.75715916     -0.18836674     -1.78626121      3.99551985
    C      2.86281699     -1.63004476     -1.37581213      4.24408738
    H      5.14239104     -0.98043191     -3.23831105      0.90773267
    H      3.68876456     -1.50190534     -4.09872684      0.90566230
    H      4.61466624     -0.13620117     -4.68468015      0.90893003
    H      3.87565159      2.01437351     -4.16141816      0.89345231
    H      2.94518183      4.37788273     -1.03856070      0.64595818
    H      1.30398984      2.75366378     -0.80326168      0.89869767
    H     -0.24739469     -1.96079699     -1.79776562      0.87002027
    H     -2.57502900      0.26806737     -4.62574018      0.85147827
    H     -2.95844325      4.34769801     -2.81655072      0.60925263
    H     -1.33038611      2.10651358     -0.92913066      0.87433812
    H      3.90803495     -1.92828731     -1.32795132      0.90742759
    H      2.42290407     -1.81995406     -0.41252835      0.90459037
    H      2.36349548     -2.26815609     -2.11180134      0.90934603
   36
Geometry Step: 2
    C      4.26726113     -0.63515612     -3.79063715      4.25076082
    C      3.43744610      0.28978113     -2.93604397      3.94924023
    C      3.35998065      1.63698713     -3.28620823      4.11002560
    C      2.62348374      2.52715185     -2.50378776      4.09855260
    C      2.57400316      3.95244267     -2.90206426      3.32279712
    O      2.45826456      4.32608248     -4.05649288      6.51151318
    O      2.70611945      4.81583335     -1.84615952      6.49643264
    C      1.91342307      2.07088812     -1.38507134      4.16330830
    C      1.95350823      0.71902587     -1.06531379      3.85673082
    N      1.21990402      0.28568893      0.10660405      5.07370510
    N      0.00288822     -0.00072768      0.01678289      5.06906578
    C     -0.67362648      0.08737288     -1.25252045      3.83030008
    C     -0.72792108     -1.04005215     -2.07644139      4.22588949
    C     -1.41486596     -0.94692012     -3.28897489      3.58598194
    F     -1.45270155     -2.01469210     -4.09237487      7.25479535
    C     -2.05706469      0.22160164     -3.68363905      4.19059128
    C     -2.02174363      1.32803070     -2.82711676      4.04850030
    C     -2.70102191      2.55917771     -3.24977112      3.32405660
    O     -3.39816509      2.69108620     -4.27379822      6.57310467
    O     -2.51014511      3.61832636     -2.42685401      6.49739100
    C     -1.34487581      1.26026177     -1.59694102      4.15743745
    C      2.75317357     -0.18228564     -1.78811004      4.00955074
    C      2.86360118     -1.62952797     -1.38178958      4.24539834
    H      5.14666228     -0.97522495     -3.23455056      0.90756546
    H      3.68152470     -1.50177117     -4.10362053      0.90720257
    H      4.61775603     -0.13495883     -4.69434681      0.91219634
    H      3.87852432      2.01594988     -4.16483469      0.89450990
    H      2.95348040      4.37754464     -1.01993133      0.64527285
    H      1.30410086      2.75168112     -0.80236312      0.90883384
    H     -0.25078064     -1.96029623     -1.79844096      0.88409598
    H     -2.57414713      0.26240872     -4.62737224      0.86354627
    H     -2.96972289      4.34864580     -2.83580226      0.61803232
    H     -1.33042412      2.10533215     -0.92492931      0.88553525
    H      3.91386629     -1.92617720     -1.32162837      0.90916809
    H      2.42428775     -1.82633801     -0.40519701      0.91070401
    H      2.35731310     -2.26546288     -2.11466966      0.90820770
   36
Geometry Step: 3
    C      4.26561124     -0.63444156     -3.79031239      4.25182158
    C      3.44109534      0.28525193     -2.93504163      3.94769457
    C      3.36064032      1.63115499     -3.28950953      4.11162889
    C      2.62222055      2.51941743     -2.50410261      4.09658426
    C      2.57704654      3.95452665     -2.90509455      3.33121785
    O      2.45837156      4.33742559     -4.05181201      6.50036436
    O      2.70656724      4.83752087     -1.84400978      6.50179060
    C      1.91405706      2.07569240     -1.38510996      4.15873003
    C      1.95289879      0.71613621     -1.07721026      3.86356517
    N      1.22800494      0.27500776      0.12580118      5.07738377
    N     -0.00222126     -0.00235957      0.03557053      5.07223574
    C     -0.67072345      0.08869464     -1.26196247      3.83640624
    C     -0.72707705     -1.04974800     -2.07971105      4.22493401
    C     -1.41496864     -0.95191697     -3.28853803      3.58351598
    F     -1.45226548     -2.01647880     -4.09268717      7.25524977
    C     -2.05909836      0.21591224     -3.69126231      4.19401723
    C     -2.02187709      1.31899634     -2.82655629      4.05229778
    C     -2.70661368      2.56048760     -3.25921221      3.32234698
    O     -3.39112643      2.68966068     -4.26297248      6.55503673
    O     -2.51470586      3.62690700     -2.42900755      6.51032787
    C     -1.34814676      1.26545756     -1.59844216      4.15343224
    C      2.75951450     -0.18593542     -1.79257773      4.00536967
    C      2.86322468     -1.62934113     -1.37989522      4.24628898
    H      5.14319474     -0.97909509     -3.23759502      0.90781365
    H      3.68612352     -1.50272067     -4.10029376      0.90702290
    H      4.61603898     -0.13503419     -4.68888262      0.91145322
    H      3.87691650      2.01433133     -4.16308199      0.89386086
    H      2.94913836      4.37589777     -1.02710083      0.64735391
    H      1.30281422      2.75362934     -0.80154108      0.90639724
    H     -0.24508414     -1.96622150     -1.79581437      0.88270249
    H     -2.57748653      0.26675906     -4.63117005      0.86299680
    H     -2.97285346      4.36408477     -2.83264919      0.61906677
    H     -1.33030739      2.10931604     -0.92562569      0.88297871
    H      3.91021597     -1.92803975     -1.32612683      0.90917947
    H      2.42228047     -1.82180532     -0.40853741      0.90825817
    H      2.36194679     -2.26742018     -2.11233574      0.90867549
   36
Geometry Step: 4
    C      4.26596056     -0.63459285     -3.79038115      4.25159672
    C      3.44032270      0.28621088     -2.93525385      3.94803248
    C      3.36050065      1.63238980     -3.28881056      4.11127552
    C      2.62248800      2.52105501     -2.50403595      4.09703158
    C      2.57640218      3.95408542     -2.90445296      3.32941101
    O      2.45834891      4.33502396     -4.05280307      6.50272583
    O      2.70647243      4.83292906     -1.84446493      6.50065544
    C      1.91392283      2.07467521     -1.38510178      4.15967755
    C      1.95302782      0.71674803     -1.07469147      3.86211627
    N      1.22628977      0.27726923      0.12173666      5.07663740
    N     -0.00113946     -0.00201406      0.03159271      5.07158475
    C     -0.67133810      0.08841479     -1.25996335      3.83510912
    C     -0.72725575     -1.04769514     -2.07901878      4.22512483
    C     -1.41494690     -0.95085900     -3.28863053      3.58405003
    F     -1.45235780     -2.01610051     -4.09262105      7.25515351
    C     -2.05866778      0.21711683     -3.68964827      4.19327655
    C     -2.02184883      1.32090914     -2.82667496      4.05149392
    C     -2.70542976      2.56021026     -3.25721329      3.32262895
    O     -3.39261669      2.68996250     -4.26526456      6.55897887
    O     -2.51374024      3.62509026     -2.42855159      6.50755891
    C     -1.34745422      1.26435748     -1.59812433      4.15427788
    C      2.75817196     -0.18516266     -1.79163181      4.00623705
    C      2.86330440     -1.62938069     -1.38029630      4.24609971
    H      5.14392891     -0.97827568     -3.23695043      0.90776126
    H      3.68514983     -1.50251963     -4.10099812      0.90706265
    H      4.61640252     -0.13501823     -4.69003953      0.91161039
    H      3.87725692      2.01467402     -4.16345308      0.89399877
    H      2.95005768      4.37624646     -1.02558287      0.64692109
    H      1.30308664      2.75321686     -0.80171513      0.90691164
    H     -0.24629023     -1.96496697     -1.79637049      0.88299605
    H     -2.57677949      0.26583798     -4.63036595      0.86310627
    H     -2.97219064      4.36081595     -2.83331678      0.61885240
    H     -1.33033210      2.10847255     -0.92547825      0.88351689
    H      3.91098883     -1.92764540     -1.32517439      0.90917938
    H      2.42270546     -1.82276500     -0.40783016      0.90877046
    H      2.36096572     -2.26700577     -2.11282989      0.90857888
   36
Geometry Step: 5
    C      4.26624269     -0.63589472     -3.78794016      4.24920776
    C      3.44581621      0.27936782     -2.93826835      3.94668159
    C      3.35810609      1.63034593     -3.28830982      4.11161690
    C      2.62203618      2.52543577     -2.50655777      4.09709800
    C      2.57933867      3.96354213     -2.90027079      3.32856111
    O      2.45880167      4.34388441     -4.04902833      6.50772917
    O      2.70586313      4.84039696     -1.85193265      6.49153261
    C      1.91613587      2.07433316     -1.38824274      4.16093540
    C      1.94385251      0.70790682     -1.06565905      3.86409823
    N      1.22442937      0.26917397      0.12447776      5.07127868
    N      0.00394326      0.00005461      0.03605541      5.06756801
    C     -0.66153442      0.08569386     -1.25136515      3.83587189
    C     -0.72920792     -1.04458587     -2.08089816      4.22390145
    C     -1.41576759     -0.95580582     -3.29082367      3.58247509
    F     -1.45212166     -2.02069299     -4.09479910      7.25482698
    C     -2.05563966      0.21253943     -3.68594453      4.19119123
    C     -2.02631434      1.32070856     -2.83069026      4.05290620
    C     -2.70682655      2.56611955     -3.25645429      3.31842387
    O     -3.39071786      2.68766549     -4.26336199      6.56155572
    O     -2.51223333      3.62006438     -2.42775931      6.50073203
    C     -1.34795958      1.25974310     -1.60304739      4.15502996
    C      2.76102375     -0.18672915     -1.79418100      4.00777562
    C      2.86399959     -1.62910058     -1.38235861      4.24726870
    H      5.14133883     -0.98208694     -3.23953559      0.90740408
    H      3.68812751     -1.50468195     -4.09857134      0.90724349
    H      4.61558929     -0.13378962     -4.68743555      0.91218570
    H      3.87685289      2.01310784     -4.16367812      0.89559022
    H      2.94654750      4.37611226     -1.02921047      0.64870255
    H      1.30156409      2.75549576     -0.80032570      0.91012902
    H     -0.23972648     -1.97315452     -1.79327951      0.88769066
    H     -2.58159494      0.26948325     -4.63736933      0.86655985
    H     -2.97947013      4.38105536     -2.83472757      0.62150567
    H     -1.33056259      2.11393555     -0.92539623      0.88745242
    H      3.90911138     -1.93007953     -1.32866097      0.90924802
    H      2.41959865     -1.81871875     -0.40800584      0.90986652
    H      2.36472464     -2.26913548     -2.11085407      0.90815561
   36
Geometry Step: 6
    C      4.26618107     -0.63561039     -3.78847327      4.24972353
    C      3.44461643      0.28086234     -2.93760999      3.94698606
    C      3.35862906      1.63079231     -3.28841918      4.11153760
    C      2.62213486      2.52447902     -2.50600701      4.09708844
    C      2.57869734      3.96147679     -2.90118418      3.32874561
    O      2.45870279      4.34194929     -4.04985273      6.50663227
    O      2.70599620      4.83876598     -1.85030171      6.49352550
    C      1.91565254      2.07440786     -1.38755676      4.16065851
    C      1.94585639      0.70983773     -1.06763172      3.86367315
    N      1.22483568      0.27094197      0.12387910      5.07244637
    N      0.00283320     -0.00039719      0.03508076      5.06844097
    C     -0.66367554      0.08628811     -1.25324299      3.83570045
    C     -0.72878157     -1.04526493     -2.08048770      4.22418325
    C     -1.41558835     -0.95472544     -3.29034469      3.58281380
    F     -1.45217323     -2.01968999     -4.09432341      7.25490160
    C     -2.05630100      0.21353913     -3.68675342      4.19165763
    C     -2.02533907      1.32075237     -2.82981332      4.05260218
    C     -2.70652149      2.56482897     -3.25662006      3.31932951
    O     -3.39113256      2.68816716     -4.26377751      6.56100529
    O     -2.51256243      3.62116203     -2.42793235      6.50224859
    C     -1.34784921      1.26075087     -1.60197220      4.15487073
    C      2.76040092     -0.18638703     -1.79362426      4.00743089
    C      2.86384776     -1.62916176     -1.38190821      4.24701971
    H      5.14190450     -0.98125456     -3.23897099      0.90748343
    H      3.68747719     -1.50420970     -4.09910135      0.90720468
    H      4.61576690     -0.13405795     -4.68800426      0.91206142
    H      3.87694113      2.01344990     -4.16362897      0.89524368
    H      2.94731413      4.37614157     -1.02841821      0.64831421
    H      1.30189661      2.75499805     -0.80062915      0.90942641
    H     -0.24116000     -1.97136637     -1.79395458      0.88665294
    H     -2.58054325      0.26868712     -4.63583979      0.86579754
    H     -2.97788030      4.37663509     -2.83441945      0.62090028
    H     -1.33051225      2.11274243     -0.92541414      0.88658534
    H      3.90952141     -1.92954792     -1.32789950      0.90923303
    H      2.42027718     -1.81960245     -0.40796748      0.90962738
    H      2.36390369     -2.26867036     -2.11128559      0.90824801
   36
Geometry Step: 7
    C      4.26805939     -0.63885215     -3.78860645      4.24999058
    C      3.44648125      0.28008378     -2.93849136      3.94790342
    C      3.35668636      1.62881983     -3.28837494      4.10891711
    C      2.62272092      2.52990997     -2.50833842      4.10097501
    C      2.58109184      3.97142986     -2.89792799      3.32732866
    O      2.45927209      4.35123676     -4.04803273      6.51061224
    O      2.70703518      4.84177065     -1.85289292      6.48731509
    C      1.91455837      2.06764765     -1.38577594      4.16166683
    C      1.94169709      0.70493297     -1.06286924      3.85932181
    N      1.23116304      0.26563498      0.12471662      5.07278246
    N     -0.00039852     -0.00114937      0.03691186      5.06896366
    C     -0.65784094      0.08600942     -1.24702960      3.83131819
    C     -0.72533717     -1.04652607     -2.07627748      4.22513748
    C     -1.41591585     -0.95954792     -3.29191859      3.58458258
    F     -1.45188436     -2.02578150     -4.09707039      7.25382232
    C     -2.05821968      0.21159811     -3.68966117      4.19028804
    C     -2.02820294      1.32164368     -2.83115601      4.05112289
    C     -2.70416397      2.56602385     -3.25167503      3.31999422
    O     -3.39408930      2.68727257     -4.26897787      6.56711781
    O     -2.51773535      3.63066485     -2.43130865      6.50032225
    C     -1.34535916      1.25557667     -1.60233663      4.15590590
    C      2.75861488     -0.18627566     -1.79169310      4.00879024
    C      2.86457889     -1.62937274     -1.38341879      4.24735892
    H      5.14099873     -0.98609514     -3.24066624      0.90696690
    H      3.69000643     -1.50731561     -4.09687093      0.90684509
    H      4.61513603     -0.13267922     -4.68570364      0.91162703
    H      3.87650077      2.01139916     -4.16399688      0.89635847
    H      2.94229661      4.37945374     -1.03505288      0.64797610
    H      1.30178985      2.75622666     -0.80052926      0.91151328
    H     -0.23675362     -1.97547251     -1.79256811      0.88691890
    H     -2.58310813      0.27166829     -4.63906467      0.86479720
    H     -2.97829966      4.38604977     -2.82956804      0.61974445
    H     -1.33104390      2.11530382     -0.92852619      0.88849829
    H      3.90882224     -1.93271516     -1.33117711      0.90894805
    H      2.41716280     -1.81510340     -0.40835659      0.91021118
    H      2.36704653     -2.27176052     -2.11012487      0.90805732
   36
Geometry Step: 8
    C      4.26784249     -0.63847781     -3.78859107      4.24995957
    C      3.44626591      0.28017368     -2.93838959      3.94779487
    C      3.35691069      1.62904760     -3.28838005      4.10921835
    C      2.62265324      2.52928284     -2.50806920      4.10052627
    C      2.58081534      3.97028055     -2.89830399      3.32749270
    O      2.45920635      4.35016430     -4.04824289      6.51015005
    O      2.70691520      4.84142369     -1.85259371      6.48803380
    C      1.91468472      2.06842827     -1.38598157      4.16155029
    C      1.94217737      0.70549934     -1.06341918      3.85981911
    N      1.23043240      0.26624780      0.12461991      5.07274974
    N     -0.00002534     -0.00106251      0.03670042      5.06890963
    C     -0.65851468      0.08604160     -1.24774708      3.83182479
    C     -0.72573490     -1.04638044     -2.07676365      4.22502177
    C     -1.41587803     -0.95899105     -3.29173685      3.58437425
    F     -1.45191771     -2.02507809     -4.09675319      7.25394379
    C     -2.05799812      0.21182224     -3.68932541      4.19044525
    C     -2.02787224      1.32154075     -2.83100096      4.05129360
    C     -2.70443620      2.56588588     -3.25224605      3.31991221
    O     -3.39374787      2.68737587     -4.26837737      6.56643085
    O     -2.51713801      3.62956752     -2.43091878      6.50053656
    C     -1.34564669      1.25617415     -1.60229455      4.15579235
    C      2.75882112     -0.18628852     -1.79191610      4.00863072
    C      2.86449446     -1.62934837     -1.38324436      4.24731935
    H      5.14110332     -0.98553619     -3.24047048      0.90702617
    H      3.68971437     -1.50695696     -4.09712849      0.90688582
    H      4.61520888     -0.13283843     -4.68596930      0.91167874
    H      3.87655162      2.01163596     -4.16395440      0.89623134
    H      2.94287600      4.37907127     -1.03428676      0.64801459
    H      1.30180218      2.75608479     -0.80054079      0.91127477
    H     -0.23726243     -1.97499836     -1.79272821      0.88688729
    H     -2.58281196      0.27132405     -4.63869228      0.86491094
    H     -2.97825124      4.38496262     -2.83012825      0.61987651
    H     -1.33098251      2.11500805     -0.92816683      0.88827840
    H      3.90890298     -1.93234943     -1.33079863      0.90898070
    H      2.41752242     -1.81562292     -0.40831165      0.91014608
    H      2.36668361     -2.27140368     -2.11025891      0.90807881
   36
Geometry Step: 9
    C      4.26931183     -0.64135654     -3.78948738      4.25142518
    C      3.44449932      0.28060901     -2.93536092      3.94906855
    C      3.35532398      1.63021235     -3.28953303      4.10910680
    C      2.62176236      2.53017812     -2.50598090      4.10250046
    C      2.58243664      3.97786632     -2.89845552      3.32847270
    O      2.46000669      4.36024280     -4.04699423      6.50940098
    O      2.70834507      4.84631813     -1.85315103      6.48648455
    C      1.91315708      2.06501438     -1.38544262      4.16024713
    C      1.94239037      0.70259765     -1.06277401      3.86043341
    N      1.23009278      0.25949586      0.12589303      5.07231577
    N      0.00354417     -0.00138565      0.04000564      5.06798630
    C     -0.65643967      0.08513767     -1.24596058      3.83264035
    C     -0.72154197     -1.05026219     -2.07367491      4.22510462
    C     -1.41497364     -0.96203021     -3.29027396      3.58581817
    F     -1.45137920     -2.03092475     -4.09855706      7.25531099
    C     -2.06138008      0.21075648     -3.69357899      4.19128309
    C     -2.02730635      1.31953487     -2.82909217      4.05361793
    C     -2.70873520      2.56951246     -3.25617426      3.31999450
    O     -3.39186032      2.68573150     -4.26647292      6.55773467
    O     -2.52245261      3.63991254     -2.43414689      6.50691470
    C     -1.34362623      1.25466263     -1.60117882      4.15483057
    C      2.75725609     -0.18650890     -1.79089726      4.00726750
    C      2.86459556     -1.62976440     -1.38311664      4.24753830
    H      5.14185012     -0.99131311     -3.24133240      0.90715472
    H      3.69186739     -1.51093939     -4.09518940      0.90667581
    H      4.61488579     -0.13161611     -4.68402058      0.91101219
    H      3.87595544      2.00899049     -4.16420705      0.89579007
    H      2.93765634      4.38268633     -1.03960290      0.64762645
    H      1.30296025      2.75551866     -0.80135056      0.91183192
    H     -0.23376899     -1.97689829     -1.79195865      0.88587540
    H     -2.58445294      0.27387872     -4.64037907      0.86379379
    H     -2.97815537      4.39298431     -2.82497819      0.61956446
    H     -1.33149917      2.11482906     -0.93374155      0.88781970
    H      3.90897713     -1.93584357     -1.33391642      0.90903609
    H      2.41479059     -1.81093801     -0.40949593      0.90994199
    H      2.36927350     -2.27517917     -2.10983206      0.90838017
   36
Geometry Step: 10
    C      4.27168928     -0.64601442     -3.79093765      4.25382911
    C      3.44164092      0.28131338     -2.93046044      3.95111518
    C      3.35275664      1.63209697     -3.29139860      4.10894126
    C      2.62032087      2.53162673     -2.50260197      4.10570863
    C      2.58505998      3.99014037     -2.89870071      3.33008434
    O      2.46130167      4.37655014     -4.04497386      6.50816015
    O      2.71065863      4.85423751     -1.85405280      6.48392695
    C      1.91068531      2.05949059     -1.38457058      4.15813039
    C      1.94273499      0.69790261     -1.06173010      3.86147310
    N      1.22954326      0.24857098      0.12795296      5.07158098
    N      0.00931976     -0.00190849      0.04535361      5.06646989
    C     -0.65308224      0.08367509     -1.24306995      3.83400618
    C     -0.71475766     -1.05654298     -2.06867724      4.22521997
    C     -1.41351031     -0.96694766     -3.28790695      3.58813704
    F     -1.45050786     -2.04038483     -4.10147580      7.25750361
    C     -2.06685222      0.20903203     -3.70046143      4.19264032
    C     -2.02639073      1.31628928     -2.82600368      4.05741323
    C     -2.71569113      2.57538039     -3.26253023      3.32038986
    O     -3.38880620      2.68307085     -4.26339145      6.54328611
    O     -2.53105182      3.65665113     -2.43937009      6.51736126
    C     -1.34035705      1.25221694     -1.59937353      4.15327393
    C      2.75472381     -0.18686548     -1.78924875      4.00506019
    C      2.86475913     -1.63043753     -1.38290999      4.24796157
    H      5.14305847     -1.00066037     -3.24272703      0.90734730
    H      3.69535105     -1.51738310     -4.09205190      0.90632035
    H      4.61436302     -0.12963835     -4.68086749      0.90993289
    H      3.87499080      2.00471002     -4.16461586      0.89507851
    H      2.92921076      4.38853561     -1.04820461      0.64701946
    H      1.30483405      2.75460264     -0.80266081      0.91271997
    H     -0.22811648     -1.97997245     -1.79071346      0.88426255
    H     -2.58710811      0.27801227     -4.64310836      0.86204921
    H     -2.97800025      4.40596368     -2.81664522      0.61899036
    H     -1.33233514      2.11453945     -0.94276163      0.88706298
    H      3.90909709     -1.94149720     -1.33896111      0.90909869
    H      2.41037039     -1.80335766     -0.41141213      0.90959018
    H      2.37346402     -2.28128804     -2.10914140      0.90885428
   36
Geometry Step: 11
    C      4.26933180     -0.64139566     -3.78949956      4.25144588
    C      3.44447532      0.28061492     -2.93531976      3.94908762
    C      3.35530242      1.63022818     -3.28954870      4.10910523
    C      2.62175025      2.53019029     -2.50595253      4.10252624
    C      2.58245868      3.97796941     -2.89845758      3.32848709
    O      2.46001757      4.36037976     -4.04697726      6.50938803
    O      2.70836450      4.84638464     -1.85315860      6.48646254
    C      1.91313632      2.06496799     -1.38543530      4.16022996
    C      1.94239326      0.70255822     -1.06276525      3.86044309
    N      1.23008816      0.25940410      0.12591033      5.07230890
    N      0.00359268     -0.00139004      0.04005056      5.06796856
    C     -0.65641148      0.08512539     -1.24593630      3.83265375
    C     -0.72148499     -1.05031494     -2.07363294      4.22511167
    C     -1.41496135     -0.96207151     -3.29025408      3.58583672
    F     -1.45137188     -2.03100420     -4.09858158      7.25532961
    C     -2.06142604      0.21074199     -3.69363679      4.19129046
    C     -2.02729866      1.31950761     -2.82906623      4.05365363
    C     -2.70879362      2.56956174     -3.25622764      3.31999324
    O     -3.39183467      2.68570915     -4.26644704      6.55761661
    O     -2.52252483      3.64005312     -2.43419076      6.50700251
    C     -1.34359877      1.25464209     -1.60116366      4.15481664
    C      2.75723482     -0.18651190     -1.79088342      4.00725008
    C      2.86459693     -1.62977005     -1.38311490      4.24754196
    H      5.14186027     -0.99139161     -3.24134412      0.90715679
    H      3.69189664     -1.51099351     -4.09516305      0.90667308
    H      4.61488140     -0.13159950     -4.68399410      0.91100270
    H      3.87594734      2.00895454     -4.16421049      0.89578362
    H      2.93758541      4.38273545     -1.03967514      0.64762133