|===============================================================================
|
|  DFTB+ development version (commit: 6753566)
|
|  Copyright (C) 2018  DFTB+ developers group
|
|===============================================================================
|
|  When publishing results obtained with DFTB+, please cite the following
|  reference:
|
|  * B. Aradi, B. Hourahine and T. Frauenheim,
|    DFTB+, a Sparse Matrix-Based Implementation of the DFTB Method,
|    J. Phys. Chem. A, 111 5678 (2007).  [doi: 10.1021/jp070186p]
|
|  You should also cite additional publications crediting the parametrization
|  data you use. Please consult the documentation of the SK-files for the
|  references.
|
|===============================================================================


***  Parsing and initializing

Parser version: 6

Interpreting input file 'dftb_in.hsd'
--------------------------------------------------------------------------------
Reading SK-files:
  ../dftb_bin/3ob-3-1/C-C.skf
  ../dftb_bin/3ob-3-1/C-O.skf
  ../dftb_bin/3ob-3-1/C-N.skf
  ../dftb_bin/3ob-3-1/C-F.skf
  ../dftb_bin/3ob-3-1/C-H.skf
  ../dftb_bin/3ob-3-1/O-O.skf
  ../dftb_bin/3ob-3-1/O-N.skf
  ../dftb_bin/3ob-3-1/O-F.skf
  ../dftb_bin/3ob-3-1/O-H.skf
  ../dftb_bin/3ob-3-1/N-N.skf
  ../dftb_bin/3ob-3-1/N-F.skf
  ../dftb_bin/3ob-3-1/N-H.skf
  ../dftb_bin/3ob-3-1/F-F.skf
  ../dftb_bin/3ob-3-1/F-H.skf
  ../dftb_bin/3ob-3-1/H-H.skf
Done.


Processed input in HSD format written to 'dftb_pin.hsd'

Starting initialization...
--------------------------------------------------------------------------------
OpenMP threads:              4
Chosen random seed:               625362494
Mode:                        Conjugate gradient relaxation
Self consistent charges:     Yes
SCC-tolerance:                 0.100000E-04
Max. scc iterations:                    100
Shell resolved Hubbard:      No
Spin polarisation:           Yes
Nr. of up electrons:            58.000000
Nr. of down electrons:          58.000000
Periodic boundaries:         No
Diagonalizer:                Relatively robust
Mixer:                       Broyden mixer
Mixing parameter:                  0.200000
Maximal SCC-cycles:                     100
Nr. of chrg. vec. in memory:              0
Nr. of moved atoms:                      35
Max. nr. of geometry steps:           20000
Force tolerance:               0.100000E-03
Force evaluation method:     Traditional
Electronic temperature:        0.100000E-07
Initial charges:             Set automatically (system chrg:   0.000E+00)
Included shells:             C:  s, p
                             O:  s, p
                             N:  s, p
                             F:  s, p
                             H:  s
Spin coupling constants:     C   1(s)-1(s):  -0.230000E-01
                             C   1(s)-2(p):  -0.230000E-01
                             C   2(p)-1(s):  -0.230000E-01
                             C   2(p)-2(p):  -0.230000E-01
                             O   1(s)-1(s):  -0.280000E-01
                             O   1(s)-2(p):  -0.280000E-01
                             O   2(p)-1(s):  -0.280000E-01
                             O   2(p)-2(p):  -0.280000E-01
                             N   1(s)-1(s):  -0.260000E-01
                             N   1(s)-2(p):  -0.260000E-01
                             N   2(p)-1(s):  -0.260000E-01
                             N   2(p)-2(p):  -0.260000E-01
                             F   1(s)-1(s):  -0.280000E-01
                             F   1(s)-2(p):  -0.280000E-01
                             F   2(p)-1(s):  -0.280000E-01
                             F   2(p)-2(p):  -0.280000E-01
                             H   1(s)-1(s):  -0.720000E-01
Full 3rd order correction    Yes
Damped SCC                   Yes
Damped species(s):           H                                                 
Extra options:
                             Mulliken analysis
Force type                   original

Geometry converged

--------------------------------------------------------------------------------
DFTB+ running times                          cpu [s]             wall clock [s]
--------------------------------------------------------------------------------
Pre-SCC initialisation                 +    11.06  (  3.4%)      1.59  (  3.4%)
      Sparse H0 and S build                  6.39  (  2.0%)      0.91  (  2.0%)
SCC                                    +   255.08  ( 78.6%)     36.57  ( 78.6%)
  Diagonalisation                          137.68  ( 42.4%)     19.68  ( 42.3%)
      Sparse to dense                       15.92  (  4.9%)      2.30  (  4.9%)
      Dense to sparse                        8.88  (  2.7%)      1.23  (  2.7%)
  Density matrix creation                    0.69  (  0.2%)      0.11  (  0.2%)
Post-SCC processing                    +    58.40  ( 18.0%)      8.34  ( 17.9%)
  Energy-density matrix creation             5.01  (  1.5%)      0.70  (  1.5%)
  Force calculation                         51.78  ( 16.0%)      7.41  ( 15.9%)
--------------------------------------------------------------------------------
Missing                                +     0.03  (  0.0%)      0.00  (  0.0%)
Total                                  =   324.57  (100.0%)     46.51  (100.0%)
--------------------------------------------------------------------------------
