   36
Geometry Step: 0
    C     -6.55575140      2.39255893     -1.54531188      3.95626905
    O     -5.74419882      1.46517156     -2.25619861      6.28646743
    C     -4.62604301      0.97752000     -1.63232394      3.70471829
    C     -4.25795595      1.28786365     -0.31985916      4.21861335
    C     -3.08913472      0.75335181      0.23071003      4.11362390
    C     -2.26147923     -0.09271983     -0.51531742      3.96392335
    N     -1.09637226     -0.61276377      0.09087538      5.04589361
    N      0.00000000      0.00000000      0.00000000      5.08915790
    C      1.16132755     -0.52479311      0.60808825      3.84358033
    C      1.46184417     -0.15232152      1.92816845      4.23377463
    C      2.58963390     -0.65713040      2.56255194      3.56742207
    F      2.86939357     -0.26914601      3.81280361      7.25453065
    C      3.42547353     -1.55745431      1.92065140      4.20754911
    C      3.11538264     -1.97349727      0.62557422      4.04713148
    C      1.97762931     -1.47495111     -0.03994951      4.16943743
    C      1.70487365     -2.03789205     -1.39871327      3.32227368
    O      2.36303465     -2.96205565     -1.85308194      6.54414134
    O      0.68762863     -1.49043796     -2.09354184      6.48725277
    C     -2.66323154     -0.45059067     -1.81233296      3.73813348
    O     -1.85595665     -1.27149810     -2.56289112      6.34397132
    C     -2.17220332     -2.64829745     -2.33792535      3.94286997
    C     -3.82017898      0.10441267     -2.38587503      4.08298224
    C     -4.17635464     -0.22082347     -3.73897852      3.80408569
    N     -4.46053822     -0.50351717     -4.82906071      5.29293859
    H     -6.99424234      1.92911049     -0.65563109      0.94755650
    H     -7.37654747      2.69182973     -2.20411281      0.93317663
    H     -5.99059594      3.29372590     -1.28579809      0.94650249
    H     -4.85627136      1.94536033      0.30410630      0.89934582
    H     -2.81502633      1.00575562      1.25355842      0.89976837
    H      0.81957623      0.53817567      2.46634057      0.88680739
    H      4.30259459     -1.94338120      2.43196724      0.88639579
    H      3.76304504     -2.69996257      0.13427792      0.87446402
    H      0.26057657     -0.72511961     -1.65648648      0.63311115
    H     -3.21918563     -2.86170420     -2.57835949      0.95235111
    H     -1.95429769     -2.93904067     -1.30508305      0.95909205
    H     -1.54120023     -3.24815113     -3.00024885      0.92068702
   36
Geometry Step: 1
    C     -6.56408231      2.38822187     -1.56622973      3.95415454
    O     -5.72958279      1.46630831     -2.23805117      6.24143570
    C     -4.66172540      0.99632024     -1.64698061      3.69423187
    C     -4.26090973      1.29702879     -0.29030086      4.25816325
    C     -3.09920979      0.76238607      0.24215390      4.07723562
    C     -2.28909468     -0.03579950     -0.52236286      3.98782833
    N     -1.10693240     -0.71361774      0.14901033      5.07927962
    N      0.01768650      0.08892272     -0.04211753      5.13479435
    C      1.16271541     -0.57428469      0.66429398      3.84622335
    C      1.44090491     -0.11381877      1.93846709      4.22350000
    C      2.58703905     -0.64364957      2.57255335      3.58433624
    F      2.86536442     -0.27090588      3.80811752      7.23534815
    C      3.46226149     -1.59071009      1.90609066      4.20885874
    C      3.12006081     -1.96155766      0.64789127      4.03422132
    C      2.00571355     -1.48766172     -0.05422397      4.15673081
    C      1.69900690     -2.03199626     -1.39650967      3.32850970
    O      2.37169585     -2.97611441     -1.86254393      6.55522939
    O      0.68624520     -1.47861696     -2.11186978      6.47939887
    C     -2.65777847     -0.43243785     -1.82120567      3.71455132
    O     -1.87075626     -1.29449462     -2.56733183      6.34551256
    C     -2.14300441     -2.66491872     -2.36771709      3.92779730
    C     -3.81374467      0.09030556     -2.39873978      4.11190963
    C     -4.18848860     -0.23781373     -3.78619468      3.80706872
    N     -4.45168000     -0.49253177     -4.79216149      5.28350442
    H     -6.99174426      1.92986000     -0.64436759      0.94997767
    H     -7.37366321      2.68805719     -2.20726014      0.92539252
    H     -5.98566534      3.29633525     -1.27634324      0.94915044
    H     -4.85838341      1.94481677      0.29926646      0.89686171
    H     -2.81406961      1.00738313      1.24799057      0.89846459
    H      0.81602235      0.53925722      2.46303155      0.87245972
    H      4.30229822     -1.94385176      2.43117685      0.87615024
    H      3.75198600     -2.69563908      0.12952044      0.88442577
    H      0.27381663     -0.74509627     -1.67767876      0.62777579
    H     -3.22813845     -2.85912598     -2.57481170      0.96797641
    H     -1.95803858     -2.93890413     -1.29277232      0.97128756
    H     -1.54087657     -3.24406885     -2.99919693      0.91025376
   36
Geometry Step: 2
    C     -6.55773657      2.39152546     -1.55029639      3.95551990
    O     -5.74071596      1.46544243     -2.25187426      6.27635716
    C     -4.63454576      0.98199991     -1.63581647      3.70142352
    C     -4.25865980      1.29004761     -0.31281572      4.22809448
    C     -3.09153550      0.75550458      0.23343699      4.10335129
    C     -2.26805971     -0.07915630     -0.51699628      3.96915652
    N     -1.09888863     -0.63679625      0.10472835      5.05712602
    N      0.00421451      0.02118938     -0.01003618      5.10328270
    C      1.16165826     -0.53658645      0.62148151      3.84265262
    C      1.45685456     -0.14314671      1.93062252      4.23047600
    C      2.58901557     -0.65391805      2.56493517      3.57181614
    F      2.86843347     -0.26956537      3.81168696      7.25004006
    C      3.43423973     -1.56537883      1.91718172      4.20724917
    C      3.11649740     -1.97065218      0.63089214      4.04427466
    C      1.98432150     -1.47797992     -0.04335097      4.16570370
    C      1.70347566     -2.03648714     -1.39818818      3.32356263
    O      2.36509853     -2.96540571     -1.85533663      6.54692306
    O      0.68729897     -1.48762114     -2.09790921      6.48541433
    C     -2.66193213     -0.44626504     -1.81444723      3.73177630
    O     -1.85948325     -1.27697794     -2.56394929      6.34424368
    C     -2.16524552     -2.65225813     -2.34502442      3.93926390
    C     -3.81864575      0.10105109     -2.38894057      4.09036440
    C     -4.17924604     -0.22487208     -3.75022965      3.80432862
    N     -4.45842739     -0.50089946     -4.82026800      5.29089838
    H     -6.99364708      1.92928909     -0.65294711      0.94826784
    H     -7.37586018      2.69093077     -2.20486279      0.93138094
    H     -5.98942103      3.29434768     -1.28354509      0.94725899
    H     -4.85677464      1.94523080      0.30295302      0.89881070
    H     -2.81479836      1.00614344      1.25223166      0.89948039
    H      0.81872938      0.53843339      2.46555206      0.88315794
    H      4.30252397     -1.94349333      2.43177890      0.88387067
    H      3.76040978     -2.69893232      0.13314426      0.87679798
    H      0.26373154     -0.72987984     -1.66153638      0.63141230
    H     -3.22131899     -2.86108984     -2.57751409      0.95617516
    H     -1.95518910     -2.93900814     -1.30214953      0.96186680
    H     -1.54112311     -3.24717836     -2.99999819      0.91822105
   36
Geometry Step: 3
    C     -6.55907231      2.39035064     -1.55440933      3.95373492
    O     -5.73914278      1.46736214     -2.24771442      6.27006462
    C     -4.63862058      0.98495826     -1.63614322      3.69884170
    C     -4.26276497      1.29261860     -0.30939535      4.23207142
    C     -3.09619908      0.76048907      0.23825894      4.09613860
    C     -2.27049614     -0.06605458     -0.51753351      3.98098197
    N     -1.08449135     -0.65390241      0.11923827      5.05964530
    N     -0.00985560      0.03437658     -0.01855864      5.10625053
    C      1.15969117     -0.55214008      0.63389836      3.85088787
    C      1.45574454     -0.13390625      1.93592123      4.22645373
    C      2.59048756     -0.65350426      2.56339438      3.57317162
    F      2.86745023     -0.26977697      3.81128235      7.25057755
    C      3.43958275     -1.56800901      1.91938928      4.20478931
    C      3.12072698     -1.97124987      0.63331256      4.04475115
    C      1.99049619     -1.47831795     -0.04385002      4.16265238
    C      1.70384675     -2.03838799     -1.40141326      3.32404959
    O      2.36485226     -2.96637677     -1.85708589      6.54456709
    O      0.69096313     -1.48754398     -2.10573843      6.48436836
    C     -2.65956952     -0.44027842     -1.81802132      3.72766790
    O     -1.86453291     -1.28383324     -2.56557819      6.34453538
    C     -2.15953888     -2.65712170     -2.35079545      3.93564677
    C     -3.82194884      0.09958350     -2.39565456      4.09241503
    C     -4.17528803     -0.22370862     -3.73645907      3.80241253
    N     -4.46248559     -0.50381434     -4.83422438      5.29818966
    H     -6.99224130      1.93022178     -0.64998404      0.94958534
    H     -7.37579562      2.68958382     -2.20747598      0.93021321
    H     -5.98846150      3.29415172     -1.28040404      0.94864666
    H     -4.85886665      1.94648255      0.30278254      0.89820402
    H     -2.81420504      1.00694801      1.25139442      0.89845509
    H      0.81496093      0.54153407      2.46578621      0.88017311
    H      4.30521896     -1.94522030      2.43251705      0.88249808
    H      3.75590293     -2.69674881      0.13162624      0.87689188
    H      0.26674262     -0.73426161     -1.66780005      0.63081738
    H     -3.22276094     -2.86038482     -2.57606456      0.95875853
    H     -1.95669703     -2.93883447     -1.29963422      0.96441982
    H     -1.53838401     -3.24769715     -3.00227129      0.91647188
   36
Geometry Step: 4
    C     -6.55864264      2.39072854     -1.55308631      3.95429877
    O     -5.73964883      1.46674462     -2.24905253      6.27212029
    C     -4.63730982      0.98400664     -1.63603812      3.69962238
    C     -4.26144445      1.29179158     -0.31049559      4.23082289
    C     -3.09469893      0.75888570      0.23670785      4.09837950
    C     -2.26971241     -0.07026904     -0.51736070      3.97719654
    N     -1.08912257     -0.64839982      0.11457083      5.05897189
    N     -0.00532963      0.03013462     -0.01581720      5.10544675
    C      1.16032393     -0.54713690      0.62990420      3.84818678
    C      1.45610160     -0.13687865      1.93421678      4.22768438
    C      2.59001406     -0.65363736      2.56389001      3.57277599
    F      2.86776651     -0.26970890      3.81141250      7.25040096
    C      3.43786405     -1.56716295      1.91867917      4.20552438
    C      3.11936644     -1.97105761      0.63253398      4.04461814
    C      1.98850996     -1.47820922     -0.04368949      4.16358620
    C      1.70372738     -2.03777654     -1.40037584      3.32389236
    O      2.36493148     -2.96606441     -1.85652320      6.54532090
    O      0.68978447     -1.48756880     -2.10321998      6.48469836
    C     -2.66032951     -0.44220415     -1.81687163      3.72893618
    O     -1.86290857     -1.28162808     -2.56505422      6.34445839
    C     -2.16137455     -2.65555722     -2.34893907      3.93680484
    C     -3.82088633      0.10005559     -2.39349485      4.09185925
    C     -4.17656122     -0.22408287     -3.74088869      3.80292808
    N     -4.46118018     -0.50287670     -4.82973499      5.29582509
    H     -6.99269350      1.92992176     -0.65093718      0.94916465
    H     -7.37581639      2.69001710     -2.20663538      0.93059229
    H     -5.98877015      3.29421476     -1.28141443      0.94820310
    H     -4.85819370      1.94607990      0.30283738      0.89840722
    H     -2.81439589      1.00668920      1.25166374      0.89879094
    H      0.81617314      0.54053667      2.46571089      0.88112185
    H      4.30435206     -1.94466478      2.43227961      0.88293585
    H      3.75735266     -2.69745119      0.13211455      0.87686525
    H      0.26577404     -0.73285211     -1.66578520      0.63098891
    H     -3.22229710     -2.86061161     -2.57653084      0.95793902
    H     -1.95621197     -2.93889034     -1.30044333      0.96359217
    H     -1.53926510     -3.24753027     -3.00154009      0.91703945
   36
Geometry Step: 5
    C     -6.55848280      2.39056992     -1.55280019      3.95246710
    O     -5.74117775      1.46932071     -2.24782689      6.27685628
    C     -4.63425219      0.98362534     -1.63287591      3.69820261
    C     -4.26681663      1.29342259     -0.31258241      4.22701234
    C     -3.09857200      0.76345721      0.23953149      4.09927000
    C     -2.26565829     -0.06667328     -0.51605663      3.98478284
    N     -1.07519622     -0.65020432      0.12051546      5.05517260
    N     -0.02096786      0.02858273     -0.01589262      5.10062833
    C      1.15559839     -0.55544105      0.63416905      3.85543738
    C      1.45993274     -0.13428355      1.93724915      4.22519042
    C      2.59249908     -0.65509635      2.56097738      3.57079354
    F      2.86749779     -0.26973362      3.81175119      7.25399599
    C      3.43688602     -1.56367532      1.92406341      4.20285589
    C      3.12389424     -1.97371282      0.63176889      4.04739244
    C      1.99035872     -1.47582748     -0.04058626      4.16378031
    C      1.70528263     -2.04062011     -1.40490604      3.32398830
    O      2.36362945     -2.96586764     -1.85764824      6.54185801
    O      0.69597335     -1.49019761     -2.11102773      6.48341070
    C     -2.65792980     -0.43742840     -1.81884681      3.72881980
    O     -1.86675178     -1.28512492     -2.56649562      6.34592885
    C     -2.16167480     -2.65882245     -2.34867593      3.93616125
    C     -3.82485685      0.10328646     -2.39238234      4.09089831
    C     -4.17839713     -0.22832269     -3.74852150      3.80350006
    N     -4.46113151     -0.50176958     -4.82791835      5.29276174
    H     -6.99099168      1.93144588     -0.64958257      0.95025904
    H     -7.37658763      2.68879544     -2.21027435      0.93157831
    H     -5.98887039      3.29287565     -1.27900536      0.94932203
    H     -4.86164828      1.94868723      0.30407091      0.89847772
    H     -2.81371531      1.00798625      1.25290632      0.89844662
    H      0.81077346      0.54574588      2.46741253      0.88158511
    H      4.30897503     -1.94735319      2.43403054      0.88385467
    H      3.75403688     -2.69604327      0.13028503      0.87503654
    H      0.26720342     -0.73483419     -1.67064074      0.63173270
    H     -3.22166821     -2.86050171     -2.57516480      0.95738544
    H     -1.95761146     -2.93874955     -1.30035131      0.96321478
    H     -1.53433430     -3.24993106     -3.00607610      0.91794195
   36
Geometry Step: 6
    C     -6.55852725      2.39061403     -1.55287976      3.95297804
    O     -5.74075252      1.46860424     -2.24816777      6.27554487
    C     -4.63510259      0.98373139     -1.63375540      3.69859419
    C     -4.26532249      1.29296897     -0.31200201      4.22806904
    C     -3.09749480      0.76218576      0.23874616      4.09902900
    C     -2.26678584     -0.06767335     -0.51641932      3.98264337
    N     -1.07906949     -0.64970245      0.11886211      5.05624645
    N     -0.01661848      0.02901435     -0.01587165      5.10199176
    C      1.15691268     -0.55313146      0.63298288      3.85337855
    C      1.45886721     -0.13500531      1.93640577      4.22589242
    C      2.59180793     -0.65469057      2.56178745      3.57133702
    F      2.86757252     -0.26972674      3.81165699      7.25299834
    C      3.43715803     -1.56464532      1.92256592      4.20360045
    C      3.12263494     -1.97297434      0.63198168      4.04661822
    C      1.98984453     -1.47648990     -0.04144935      4.16373027
    C      1.70485008     -2.03982924     -1.40364608      3.32395152
    O      2.36399157     -2.96592236     -1.85733534      6.54283075
    O      0.69425206     -1.48946647     -2.10885620      6.48376773
    C     -2.65859722     -0.43875666     -1.81829746      3.72885240
    O     -1.86568289     -1.28415236     -2.56609473      6.34552389
    C     -2.16159130     -2.65791431     -2.34874912      3.93633910
    C     -3.82375255      0.10238787     -2.39269176      4.09118513
    C     -4.17788652     -0.22714349     -3.74639862      3.80332665
    N     -4.46114505     -0.50207750     -4.82842360      5.29361042
    H     -6.99146500      1.93102198     -0.64995932      0.94995547
    H     -7.37637313      2.68913522     -2.20926226      0.93130536
    H     -5.98884251      3.29324809     -1.27967538      0.94901187
    H     -4.86068748      1.94796206      0.30372783      0.89846336
    H     -2.81390459      1.00762551      1.25256072      0.89854399
    H      0.81227525      0.54429707      2.46693926      0.88145653
    H      4.30768927     -1.94660548      2.43354356      0.88360200
    H      3.75495908     -2.69643485      0.13079386      0.87554243
    H      0.26680588     -0.73428292     -1.66929029      0.63152439
    H     -3.22184312     -2.86053227     -2.57554473      0.95754077
    H     -1.95722223     -2.93878870     -1.30037690      0.96332084
    H     -1.53570568     -3.24926334     -3.00481452      0.91769339
   36
Geometry Step: 7
    C     -6.55873240      2.39151729     -1.55096516      3.95295052
    O     -5.74178690      1.47039914     -2.24776536      6.27821141
    C     -4.63352043      0.98365514     -1.63250460      3.69852561
    C     -4.26919439      1.29476691     -0.31195112      4.22630233
    C     -3.09913134      0.76464379      0.23796478      4.09977201
    C     -2.26275010     -0.06704498     -0.51379655      3.98079557
    N     -1.08373090     -0.65344498      0.12205007      5.05637168
    N     -0.01494883      0.02882389     -0.01217396      5.10260292
    C      1.15123788     -0.55602395      0.63626081      3.85113081
    C      1.46125375     -0.13451736      1.93566845      4.22560572
    C      2.59346441     -0.65368244      2.56270930      3.57035684
    F      2.86779361     -0.26989672      3.81180176      7.25243183
    C      3.43771265     -1.56382489      1.92462888      4.20315228
    C      3.12483732     -1.97250955      0.63366496      4.04666605
    C      1.99046053     -1.47517325     -0.03856934      4.16570616
    C      1.70607434     -2.04013946     -1.40612642      3.32548955
    O      2.36497787     -2.96888652     -1.85958770      6.54330168
    O      0.70028911     -1.49070668     -2.11694369      6.48052254
    C     -2.65667773     -0.43382419     -1.81840298      3.73043452
    O     -1.86917156     -1.28534412     -2.56768011      6.34717107
    C     -2.16359513     -2.66131038     -2.34694770      3.93724254
    C     -3.82538061      0.10468612     -2.39185467      4.08947354
    C     -4.17870959     -0.22946934     -3.74718748      3.80373189
    N     -4.46256981     -0.50253872     -4.83248207      5.29289481
    H     -6.98963620      1.93293207     -0.64895737      0.94970051
    H     -7.37701185      2.68765137     -2.21318781      0.93183141
    H     -5.98940324      3.29157713     -1.27721481      0.94873727
    H     -4.86546350      1.95134854      0.30514760      0.89810692
    H     -2.81345407      1.00978332      1.25550967      0.89947468
    H      0.80709619      0.54974636      2.46879591      0.88326692
    H      4.31229892     -1.94919363      2.43574458      0.88442181
    H      3.75340390     -2.69678301      0.12759741      0.87511393
    H      0.26875227     -0.73738641     -1.67562449      0.63250425
    H     -3.22071722     -2.86126568     -2.57418117      0.95573123
    H     -1.95860252     -2.93896503     -1.30102990      0.96163610
    H     -1.53021614     -3.25201265     -3.00981711      0.91863111
   36
Geometry Step: 8
    C     -6.55906435      2.39297879     -1.54786727      3.95294148
    O     -5.74346055      1.47330336     -2.24711425      6.28248312
    C     -4.63096044      0.98353177     -1.63048075      3.69844403
    C     -4.27545925      1.29767605     -0.31186876      4.22343107
    C     -3.10177931      0.76862096      0.23670048      4.10098322
    C     -2.25622013     -0.06602825     -0.50955283      3.97774460
    N     -1.09127322     -0.65950053      0.12720829      5.05667406
    N     -0.01224729      0.02851573     -0.00619099      5.10355109
    C      1.14205587     -0.56070409      0.64156460      3.84759626
    C      1.46511527     -0.13372783      1.93447545      4.22508119
    C      2.59614464     -0.65205126      2.56420088      3.56878077
    F      2.86815134     -0.27017176      3.81203601      7.25151005
    C      3.43861003     -1.56249740      1.92796684      4.20239639
    C      3.12840084     -1.97175750      0.63638857      4.04676448
    C      1.99145723     -1.47304287     -0.03390940      4.16877768
    C      1.70805524     -2.04064140     -1.41013969      3.32805086
    O      2.36657373     -2.97368263     -1.86323209      6.54400199
    O      0.71005725     -1.49271338     -2.13002952      6.47534332
    C     -2.65357194     -0.42584329     -1.81857371      3.73304981
    O     -1.87481635     -1.28727243     -2.57024529      6.34980440
    C     -2.16683739     -2.66680535     -2.34403293      3.93871258
    C     -3.82801486      0.10840477     -2.39050024      4.08667408
    C     -4.18004135     -0.23323264     -3.74846387      3.80439450
    N     -4.46487511     -0.50328499     -4.83904882      5.29172302
    H     -6.98667714      1.93602264     -0.64733617      0.94928379
    H     -7.37804533      2.68525045     -2.21953949      0.93265947
    H     -5.99031051      3.28887345     -1.27323353      0.94828697
    H     -4.87319126      1.95682797      0.30744484      0.89751548
    H     -2.81272510      1.01327475      1.26028117      0.90097966
    H      0.79871631      0.55856351      2.47180004      0.88625136
    H      4.31975750     -1.95338136      2.43930590      0.88575723
    H      3.75088757     -2.69734635      0.12242544      0.87440933
    H      0.27190161     -0.74240796     -1.68587343      0.63404850
    H     -3.21889546     -2.86245237     -2.57197489      0.95282453
    H     -1.96083587     -2.93925033     -1.30208647      0.95893688
    H     -1.52133388     -3.25646114     -3.01791148      0.92013276
   36
Geometry Step: 9
    C     -6.55880813      2.39185071     -1.55025841      3.95294573
    O     -5.74216872      1.47106170     -2.24761682      6.27918509
    C     -4.63293640      0.98362700     -1.63204288      3.69849761
    C     -4.27062364      1.29543059     -0.31193233      4.22565040
    C     -3.09973544      0.76555113      0.23767635      4.10004510
    C     -2.26126037     -0.06681303     -0.51282840      3.98010984
    N     -1.08545158     -0.65482648      0.12322685      5.05643981
    N     -0.01433251      0.02875359     -0.01080902      5.10281825
    C      1.14914312     -0.55709166      0.63747080      3.85031025
    C      1.46213471     -0.13433724      1.93539628      4.22548623
    C      2.59407587     -0.65331031      2.56304959      3.56999299
    F      2.86787522     -0.26995947      3.81185520      7.25222241
    C      3.43791737     -1.56352204      1.92539040      4.20298458
    C      3.12565029     -1.97233798      0.63428632      4.04669122
    C      1.99068792     -1.47468723     -0.03750624      4.16642272
    C      1.70652626     -2.04025397     -1.40704199      3.32606864
    O      2.36534195     -2.96998069     -1.86041912      6.54346764
    O      0.70251759     -1.49116448     -2.11992906      6.47932706
    C     -2.65596918     -0.43200345     -1.81844193      3.73102512
    O     -1.87045934     -1.28578404     -2.56826532      6.34777696
    C     -2.16433481     -2.66256399     -2.34628273      3.93757472
    C     -3.82598158      0.10553448     -2.39154568      4.08883965
    C     -4.17901341     -0.23032789     -3.74747867      3.80387140
    N     -4.46309573     -0.50270898     -4.83398019      5.29264154
    H     -6.98896113      1.93363714     -0.64858751      0.94960635
    H     -7.37724763      2.68710363     -2.21463687      0.93202420
    H     -5.98961022      3.29096032     -1.27630654      0.94863548
    H     -4.86722649      1.95259860      0.30567169      0.89797408
    H     -2.81328776      1.01057985      1.25659823      0.89981922
    H      0.80518443      0.55175788      2.46948127      0.88394496
    H      4.31400050     -1.95014901      2.43655705      0.88472713
    H      3.75282983     -2.69691153      0.12641749      0.87495348
    H      0.26947075     -0.73853201     -1.67796266      0.63286218
    H     -3.22030161     -2.86153641     -2.57367784      0.95506341
    H     -1.95911203     -2.93903012     -1.30127094      0.96101520
    H     -1.52818977     -3.25302752     -3.01166374      0.91897935
   36
Geometry Step: 10
    C     -6.56130674      2.39362755     -1.54991701      3.95441878
    O     -5.74131725      1.47221669     -2.24635843      6.27576313
    C     -4.63721568      0.98696802     -1.63310760      3.69820194
    C     -4.27325168      1.29838864     -0.30765504      4.22895070
    C     -3.09933022      0.76838254      0.23748290      4.09903319
    C     -2.26116937     -0.06499124     -0.51029709      3.97999719
    N     -1.08938262     -0.65393446      0.12550319      5.05588969
    N     -0.01589538      0.02080330     -0.00185227      5.10025573
    C      1.14437182     -0.56018400      0.64150043      3.84799653
    C      1.45964407     -0.12924564      1.93757300      4.22879438
    C      2.59564064     -0.65059542      2.56554454      3.56985952
    F      2.86875002     -0.26961727      3.81330322      7.25064434
    C      3.44400610     -1.56611015      1.92806670      4.20511650
    C      3.12603300     -1.96945526      0.63684291      4.04549741
    C      1.99022248     -1.47508062     -0.03604770      4.16898597
    C      1.71123038     -2.04220708     -1.40986059      3.32722485
    O      2.36684052     -2.97360979     -1.86226699      6.54094723
    O      0.71117620     -1.49029996     -2.13164077      6.48001458
    C     -2.65319795     -0.42580709     -1.81740514      3.72993134
    O     -1.87596791     -1.28620899     -2.57006511      6.35072333
    C     -2.16288126     -2.66847133     -2.34834425      3.93777859
    C     -3.82385752      0.10588052     -2.39253383      4.09132479
    C     -4.18164491     -0.23386531     -3.75082619      3.80399800
    N     -4.46410509     -0.50255360     -4.83579886      5.29260770
    H     -6.98676660      1.93626152     -0.64601217      0.94873031
    H     -7.37671869      2.68438292     -2.21914216      0.93080854
    H     -5.99008973      3.28962188     -1.27201313      0.94776439
    H     -4.87483646      1.95742023      0.30693544      0.89807953
    H     -2.81383228      1.01403492      1.25953326      0.90092054
    H      0.80117693      0.55659631      2.46961785      0.88319967
    H      4.31874875     -1.95295340      2.43912105      0.88343964
    H      3.75111367     -2.69777859      0.12119067      0.87650138
    H      0.27317528     -0.74500371     -1.68974674      0.63341299
    H     -3.22044846     -2.86412688     -2.57189169      0.95445618
    H     -1.96088192     -2.94008255     -1.30076406      0.96073300
    H     -1.52278380     -3.25481556     -3.01607573      0.91799843
   36
Geometry Step: 11
    C     -6.56534958      2.39650252     -1.54936461      3.95687027
    O     -5.73993955      1.47408550     -2.24432230      6.27005989
    C     -4.64413971      0.99237391     -1.63483035      3.69776260
    C     -4.27750393      1.30317486     -0.30073423      4.23439725
    C     -3.09867457      0.77296387      0.23716989      4.09739423
    C     -2.26102214     -0.06204353     -0.50620133      3.97984590
    N     -1.09574319     -0.65249115      0.12918639      5.05493564
    N     -0.01842414      0.00793945      0.01264007      5.09563706
    C      1.13665168     -0.56518752      0.64802052      3.84439731
    C      1.45561412     -0.12100727      1.94109500      4.23430514
    C      2.59817250     -0.64620264      2.56958145      3.56960678
    F      2.87016547     -0.26906359      3.81564616      7.24807149
    C      3.45385786     -1.57029780      1.93239705      4.20870609
    C      3.12665225     -1.96479092      0.64097956      4.04351178
    C      1.98946940     -1.47571712     -0.03368775      4.17320172
    C      1.71884182     -2.04536728     -1.41442117      3.32912643
    O      2.36926527     -2.97948180     -1.86525691      6.53680871
    O      0.72518612     -1.48890112     -2.15059073      6.48137503
    C     -2.64871399     -0.41578118     -1.81572757      3.72817637
    O     -1.88488096     -1.28689657     -2.57297722      6.35555804
    C     -2.16052936     -2.67802961     -2.35167986      3.93814178
    C     -3.82042074      0.10644041     -2.39413270      4.09527322
    C     -4.18590275     -0.23958899     -3.75624259      3.80423623
    N     -4.46573827     -0.50230220     -4.83874151      5.29251093
    H     -6.98321577      1.94050785     -0.64184519      0.94727245
    H     -7.37586286      2.67998071     -2.22643188      0.92881515
    H     -5.99086561      3.28745623     -1.26506625      0.94631361
    H     -4.88714966      1.96522179      0.30898023      0.89821266