|===============================================================================
|
|  DFTB+ development version (commit: 6753566)
|
|  Copyright (C) 2018  DFTB+ developers group
|
|===============================================================================
|
|  When publishing results obtained with DFTB+, please cite the following
|  reference:
|
|  * B. Aradi, B. Hourahine and T. Frauenheim,
|    DFTB+, a Sparse Matrix-Based Implementation of the DFTB Method,
|    J. Phys. Chem. A, 111 5678 (2007).  [doi: 10.1021/jp070186p]
|
|  You should also cite additional publications crediting the parametrization
|  data you use. Please consult the documentation of the SK-files for the
|  references.
|
|===============================================================================


***  Parsing and initializing

Parser version: 6

Interpreting input file 'dftb_in.hsd'
--------------------------------------------------------------------------------
Reading SK-files:
  /var/lib/condor/execute/dir_22668/neb_bin/3ob-3-1/C-C.skf
  /var/lib/condor/execute/dir_22668/neb_bin/3ob-3-1/C-N.skf
  /var/lib/condor/execute/dir_22668/neb_bin/3ob-3-1/C-F.skf
  /var/lib/condor/execute/dir_22668/neb_bin/3ob-3-1/C-H.skf
  /var/lib/condor/execute/dir_22668/neb_bin/3ob-3-1/N-N.skf
  /var/lib/condor/execute/dir_22668/neb_bin/3ob-3-1/N-F.skf
  /var/lib/condor/execute/dir_22668/neb_bin/3ob-3-1/N-H.skf
  /var/lib/condor/execute/dir_22668/neb_bin/3ob-3-1/F-F.skf
  /var/lib/condor/execute/dir_22668/neb_bin/3ob-3-1/F-H.skf
  /var/lib/condor/execute/dir_22668/neb_bin/3ob-3-1/H-H.skf
Done.
WARNING!
-> The following 7 node(s) have been ignored by the parser:
(1)
Path: dftb_in/Hamiltonian/DFTB/HubbardDerivs/O
Line: 26-26 (File: dftb_in.hsd)
(2)
Path: dftb_in/Hamiltonian/DFTB/HubbardDerivs/S
Line: 27-27 (File: dftb_in.hsd)
(3)
Path: dftb_in/Hamiltonian/DFTB/MaxAngularMomentum/O
Line: 34-34 (File: dftb_in.hsd)
(4)
Path: dftb_in/Hamiltonian/DFTB/MaxAngularMomentum/S
Line: 35-35 (File: dftb_in.hsd)
(5)
Path: dftb_in/Hamiltonian/DFTB/SpinConstants/O
Line: 48-48 (File: dftb_in.hsd)
(6)
Path: dftb_in/Hamiltonian/DFTB/SpinConstants/S
Line: 49-49 (File: dftb_in.hsd)
(7)
Path: dftb_in/Analysis
Line: 62-64 (File: dftb_in.hsd)



Processed input in HSD format written to 'dftb_pin.hsd'

Starting initialization...
--------------------------------------------------------------------------------
OpenMP threads:              4
Chosen random seed:               262564987
Mode:                        Conjugate gradient relaxation
Self consistent charges:     Yes
SCC-tolerance:                 0.100000E-04
Max. scc iterations:                    100
Shell resolved Hubbard:      No
Spin polarisation:           Yes
Nr. of up electrons:            68.000000
Nr. of down electrons:          68.000000
Periodic boundaries:         No
Diagonalizer:                Relatively robust
Mixer:                       Broyden mixer
Mixing parameter:                  0.200000
Maximal SCC-cycles:                     100
Nr. of chrg. vec. in memory:              0
Nr. of moved atoms:                      47
Max. nr. of geometry steps:           20000
Force tolerance:               0.100000E-03
Force evaluation method:     Traditional
Electronic temperature:        0.950000E-03
Initial charges:             Set automatically (system chrg:   0.000E+00)
Included shells:             C:  s, p
                             N:  s, p
                             F:  s, p
                             H:  s
Spin coupling constants:     C   1(s)-1(s):  -0.230000E-01
                             C   1(s)-2(p):  -0.230000E-01
                             C   2(p)-1(s):  -0.230000E-01
                             C   2(p)-2(p):  -0.230000E-01
                             N   1(s)-1(s):  -0.260000E-01
                             N   1(s)-2(p):  -0.260000E-01
                             N   2(p)-1(s):  -0.260000E-01
                             N   2(p)-2(p):  -0.260000E-01
                             F   1(s)-1(s):  -0.280000E-01
                             F   1(s)-2(p):  -0.280000E-01
                             F   2(p)-1(s):  -0.280000E-01
                             F   2(p)-2(p):  -0.280000E-01
                             H   1(s)-1(s):  -0.720000E-01
Full 3rd order correction    Yes
Damped SCC                   Yes
Damped species(s):           H                                                 
Extra options:
                             Mulliken analysis
Force type                   original

Geometry converged

--------------------------------------------------------------------------------
DFTB+ running times                          cpu [s]             wall clock [s]
--------------------------------------------------------------------------------
Pre-SCC initialisation                 +     0.05  (  2.6%)      0.01  (  3.1%)
      Sparse H0 and S build                  0.02  (  1.3%)      0.00  (  1.5%)
SCC                                    +     1.48  ( 81.5%)      0.21  ( 81.2%)
  Diagonalisation                            0.85  ( 46.7%)      0.12  ( 46.0%)
      Sparse to dense                        0.10  (  5.7%)      0.01  (  3.4%)
      Dense to sparse                        0.06  (  3.3%)      0.01  (  3.8%)
Post-SCC processing                    +     0.28  ( 15.6%)      0.04  ( 15.3%)
  Energy-density matrix creation             0.02  (  1.3%)      0.00  (  0.8%)
  Force calculation                          0.26  ( 14.3%)      0.04  ( 14.2%)
--------------------------------------------------------------------------------
Missing                                +     0.00  (  0.2%)      0.00  (  0.4%)
Total                                  =     1.82  (100.0%)      0.26  (100.0%)
--------------------------------------------------------------------------------
