   32
Geometry Step: 0
    N      1.60138165      2.61620599     -2.62898639      5.26762702
    C      1.89840770      2.45317647     -1.51946721      3.83393097
    C      2.27067379      2.30102541     -0.14238464      3.96866094
    C      2.97851043      3.34018957      0.47475291      4.07649195
    C      3.39851913      3.21116601      1.79656914      4.10021487
    C      3.13912542      2.02923827      2.50502022      4.06497078
    C      3.59200779      1.92721687      3.90935607      3.33236692
    O      2.99559584      1.39138011      4.81931212      6.53309491
    O      4.78911923      2.51091353      4.08310777      6.48839642
    C      2.43784169      0.97685729      1.89284221      3.96693283
    C      2.28044277     -0.28840528      2.55775310      3.83477566
    N      2.20080250     -1.32982720      3.06358540      5.23527546
    C      1.95284155      1.12830002      0.57296006      3.87083970
    N      1.25604993      0.06884858     -0.05322640      5.05123420
    N      0.00000000      0.00000000      0.00000000      5.03001098
    C     -0.76283476      0.96970809      0.68178847      3.95214559
    C     -1.32375516      2.03418189     -0.03688497      4.12010957
    C     -2.11878732      2.99278220      0.60843500      4.09428310
    C     -2.70948761      4.14201647     -0.11899020      3.31552278
    O     -3.34614282      5.04732246      0.38559468      6.57221932
    O     -2.46817724      4.09464082     -1.43816639      6.49313486
    C     -2.37295509      2.87641781      1.98126092      4.08025117
    C     -1.85071518      1.80054127      2.69795172      4.17350268
    C     -1.06536088      0.85439380      2.04390691      3.63009607
    F     -0.58605839     -0.17421332      2.75523971      7.24018498
    H      3.21295973      4.25285938     -0.07355751      0.89491201
    H      3.94141969      4.03021396      2.26742392      0.89033810
    H      4.99978404      2.35549671      5.02989260      0.62181696
    H     -1.13744094      2.10426607     -1.10757830      0.87967604
    H     -2.89775325      4.89739022     -1.80182627      0.62368050
    H     -2.99177041      3.61396071      2.49077889      0.88115659
    H     -2.05781548      1.68605832      3.75831024      0.88214607
   32
Geometry Step: 1
    N      1.61151399      2.60967800     -2.59541678      5.24658891
    C      1.87365606      2.45810351     -1.57007428      3.83677015
    C      2.27367106      2.30555853     -0.15044306      3.95952480
    C      2.99322331      3.35172785      0.48820781      4.07810411
    C      3.39841349      3.22099169      1.78339940      4.08723097
    C      3.12576800      2.03943602      2.48686308      4.05197647
    C      3.59400147      1.92903305      3.86050107      3.36287607
    O      2.97610831      1.37060985      4.86154518      6.54809683
    O      4.82525796      2.51508755      4.15858560      6.50442182
    C      2.42972488      0.96842106      1.87614766      3.95055689
    C      2.27226916     -0.33236505      2.58690063      3.83596548
    N      2.20525402     -1.29607318      3.04446351      5.21895792
    C      1.96720126      1.16517130      0.60325122      3.89471484
    N      1.24363765      0.03596846     -0.07424424      5.05160814
    N      0.02696863     -0.06965399     -0.03902746      5.03627445
    C     -0.77881964      1.02976170      0.69108781      4.00336316
    C     -1.32220895      2.02855606     -0.05084457      4.10078650
    C     -2.12785981      2.99721506      0.63065013      4.07855430
    C     -2.67093326      4.07637916     -0.10908199      3.34857213
    O     -3.37598527      5.09073579      0.40414620      6.61443756
    O     -2.49218248      4.14935099     -1.48913906      6.50930721
    C     -2.37287658      2.86773212      2.00287520      4.05464608
    C     -1.86403123      1.80963366      2.71022363      4.18271663
    C     -1.06864280      0.84450646      2.07307163      3.60543323
    F     -0.58429665     -0.17363334      2.74590679      7.21263105
    H      3.20886807      4.24471774     -0.07418446      0.89298389
    H      3.93822918      4.02236357      2.26898360      0.88744211
    H      5.01514805      2.37150365      5.00698481      0.61005797
    H     -1.13647233      2.10828649     -1.10250373      0.87129578
    H     -2.88348912      4.87629900     -1.81394827      0.60948866
    H     -2.98847988      3.61371961      2.48267266      0.87339187
    H     -2.05620823      1.68550016      3.75721405      0.88122402
   32
Geometry Step: 2
    N      1.60314443      2.61507028     -2.62314611      5.26371348
    C      1.89410152      2.45403366     -1.52827159      3.83413740
    C      2.27119524      2.30181406     -0.14378661      3.96728264
    C      2.98107011      3.34219695      0.47709373      4.07688969
    C      3.39850075      3.21287543      1.79427793      4.09787128
    C      3.13680156      2.03101243      2.50186132      4.06241304
    C      3.59235464      1.92753284      3.90085651      3.33696577
    O      2.99220549      1.38776660      4.82665963      6.53750844
    O      4.79540648      2.51163970      4.09623905      6.49137384
    C      2.43642956      0.97538960      1.88993777      3.96416829
    C      2.27902076     -0.29605319      2.56282405      3.83474230
    N      2.20157696     -1.32395483      3.06025866      5.23205765
    C      1.95533979      1.13471471      0.57822998      3.87525286
    N      1.25389050      0.06312825     -0.05688298      5.05138079
    N      0.00469188     -0.01211807     -0.00678981      5.03259737
    C     -0.76561574      0.98015593      0.68340632      3.96056275
    C     -1.32348616      2.03320314     -0.03931359      4.11657225
    C     -2.12036571      2.99355341      0.61229988      4.09106238
    C     -2.70278010      4.13059720     -0.11726642      3.31992799
    O     -3.35133467      5.05487530      0.38882218      6.58253919
    O     -2.47235356      4.10415904     -1.44703437      6.49580161
    C     -2.37294143      2.87490671      1.98502127      4.07517277
    C     -1.85303184      1.80212312      2.70008673      4.17529917
    C     -1.06593185      0.85267365      2.04898085      3.62551885
    F     -0.58575189     -0.17411242      2.75361601      7.23536285
    H      3.21224788      4.25144293     -0.07366658      0.89463021
    H      3.94086462      4.02884819      2.26769527      0.88982944
    H      5.00245700      2.35828152      5.02590721      0.61917366
    H     -1.13727243      2.10496552     -1.10669545      0.87814815
    H     -2.89527164      4.89372087     -1.80393520      0.62053285
    H     -2.99119794      3.61391877      2.48936860      0.87958093
    H     -2.05753586      1.68596121      3.75811953      0.88193012
   32
Geometry Step: 3
    N      1.60100515      2.61584911     -2.63243589      5.26471713
    C      1.89241127      2.45227330     -1.52070374      3.83300517
    C      2.27263888      2.30571404     -0.14791571      3.96527769
    C      2.98360610      3.34449530      0.47697927      4.07681982
    C      3.39904625      3.21556234      1.79218363      4.09599932
    C      3.13287687      2.03312265      2.49654697      4.06311562
    C      3.59100512      1.92366985      3.89991610      3.33975475
    O      2.99271861      1.38732372      4.82824854      6.53141196
    O      4.80053984      2.51273874      4.10923674      6.49877547
    C      2.43526088      0.97103886      1.88999632      3.96165843
    C      2.27809158     -0.28798212      2.56089034      3.83363837
    N      2.20160679     -1.33181561      3.06326122      5.23244879
    C      1.95499242      1.14206141      0.58176596      3.87870683
    N      1.25689361      0.05514433     -0.06224913      5.05247917
    N      0.00542434     -0.02950585     -0.01579356      5.03465852
    C     -0.76512980      0.99018553      0.68565762      3.97036531
    C     -1.32556302      2.03493771     -0.04189975      4.11147661
    C     -2.12117202      2.99230350      0.61752665      4.09097269
    C     -2.70176273      4.12759037     -0.11322653      3.32170380
    O     -3.35089435      5.05433404      0.38776097      6.57850158
    O     -2.47593884      4.11281169     -1.45480903      6.50420298
    C     -2.37372999      2.87390445      1.99044993      4.07305108
    C     -1.85560182      1.80206270      2.70517672      4.17676719
    C     -1.06798084      0.85250254      2.05555991      3.62140802
    F     -0.58482497     -0.17475000      2.75105219      7.23234530
    H      3.21124384      4.24954046     -0.07409946      0.89433631
    H      3.94003850      4.02658325      2.26842267      0.88838491
    H      5.00908482      2.36177807      5.02782697      0.61804346
    H     -1.13679029      2.10638495     -1.10609515      0.87620129
    H     -2.89481066      4.89438953     -1.81044069      0.61928180
    H     -2.99042132      3.61416350      2.48714251      0.87896582
    H     -2.05743590      1.68591017      3.75884119      0.88152484
   32
Geometry Step: 4
    N      1.60156067      2.61564687     -2.63002356      5.26447522
    C      1.89285019      2.45273042     -1.52266892      3.83326772
    C      2.27226401      2.30470131     -0.14684349      3.96580661
    C      2.98294757      3.34389847      0.47700899      4.07684058
    C      3.39890460      3.21486462      1.79272746      4.09648352
    C      3.13389601      2.03257468      2.49792698      4.06294613
    C      3.59135556      1.92467297      3.90016030      3.33902019
    O      2.99258537      1.38743873      4.82783594      6.53300198
    O      4.79920684      2.51245335      4.10586156      6.49685535
    C      2.43556436      0.97216864      1.88998112      3.96232046
    C      2.27833287     -0.29007798      2.56139248      3.83389941
    N      2.20159905     -1.32977436      3.06248153      5.23236159
    C      1.95508262      1.14015365      0.58084775      3.87781427
    N      1.25611378      0.05721756     -0.06085567      5.05218333
    N      0.00523414     -0.02499068     -0.01345551      5.03419674
    C     -0.76525598      0.98758109      0.68507301      3.96781274
    C     -1.32502371      2.03448729     -0.04122819      4.11277083
    C     -2.12096264      2.99262807      0.61616939      4.09100584
    C     -2.70202692      4.12837117     -0.11427559      3.32123637
    O     -3.35100869      5.05447459      0.38803654      6.57955474
    O     -2.47500783      4.11056481     -1.45279015      6.50202667
    C     -2.37352522      2.87416471      1.98904024      4.07357923
    C     -1.85493446      1.80207839      2.70385498      4.17639313
    C     -1.06744877      0.85254697      2.05385149      3.62245155
    F     -0.58506567     -0.17458444      2.75171795      7.23312299
    H      3.21150456      4.25003448     -0.07398705      0.89441571
    H      3.94025303      4.02717140      2.26823378      0.88875987
    H      5.00736374      2.36087010      5.02732846      0.61833605
    H     -1.13691549      2.10601636     -1.10625103      0.87670225
    H     -2.89493037      4.89421590     -1.80875138      0.61960544
    H     -2.99062299      3.61409995      2.48772057      0.87912427
    H     -2.05746186      1.68592342      3.75865379      0.88162926
   32
Geometry Step: 5
    N      1.60156294      2.61504669     -2.63075594      5.26388484
    C      1.88825015      2.45268896     -1.52612413      3.83411643
    C      2.27455353      2.30853564     -0.14722844      3.96483376
    C      2.98438096      3.34564634      0.47448804      4.07676224
    C      3.39926328      3.21644102      1.79159561      4.09636550
    C      3.13127265      2.03401299      2.49529253      4.06506259
    C      3.59134153      1.92077379      3.90447166      3.33787540
    O      2.99486698      1.38859851      4.82520587      6.52679446
    O      4.79962099      2.51343502      4.11030263      6.50044368
    C      2.43549611      0.97167238      1.89021669      3.96229247
    C      2.27637002     -0.29232601      2.56428240      3.83355275
    N      2.20226015     -1.32966285      3.06168543      5.23281349
    C      1.95105151      1.14329698      0.57962645      3.87915547
    N      1.25935333      0.05137873     -0.06488117      5.05238434
    N      0.00517810     -0.03742809     -0.01934590      5.03464380
    C     -0.76122104      0.99021050      0.68675354      3.97333208
    C     -1.32794570      2.03736894     -0.04169352      4.10985585
    C     -2.12119280      2.99097800      0.61983294      4.09287877
    C     -2.70509664      4.13249285     -0.11278148      3.31970738
    O     -3.34734844      5.04911364      0.38533585      6.57081174
    O     -2.47558345      4.11275520     -1.45437880      6.50685989
    C     -2.37430085      2.87362685      1.99301842      4.07433296
    C     -1.85657363      1.80058645      2.70941856      4.17644709
    C     -1.06940745      0.85432683      2.05666866      3.62094779
    F     -0.58388066     -0.17593973      2.74963520      7.23435068
    H      3.21090358      4.24920053     -0.07498121      0.89417225
    H      3.93983230      4.02543035      2.26938412      0.88838270
    H      5.01553963      2.36320789      5.03652487      0.61926051
    H     -1.13642688      2.10775168     -1.10659070      0.87633707
    H     -2.89742342      4.90027495     -1.81736908      0.62065239
    H     -2.99039530      3.61499313      2.48608572      0.87965148
    H     -2.05787312      1.68583436      3.76107896      0.88103816
   32
Geometry Step: 6
    N      1.60156660      2.61407559     -2.63194095      5.26290327
    C      1.88080714      2.45262186     -1.53171478      3.83557164
    C      2.27825805      2.31473972     -0.14785131      3.96317739
    C      2.98670025      3.34847444      0.47040906      4.07666290
    C      3.39984364      3.21899168      1.78976423      4.09613353
    C      3.12702797      2.03634024      2.49102991      4.06856493
    C      3.59131883      1.91446478      3.91144759      3.33631567
    O      2.99855872      1.39047507      4.82095031      6.51629273
    O      4.80029109      2.51502338      4.11748843      6.50630807
    C      2.43538568      0.97086941      1.89059785      3.96219403
    C      2.27319406     -0.29596339      2.56895841      3.83304645
    N      2.20332984     -1.32948243      3.06039733      5.23351938
    C      1.94452903      1.14838300      0.57765033      3.88133318
    N      1.26459503      0.04193132     -0.07139457      5.05278915
    N      0.00508742     -0.05755224     -0.02887675      5.03497372
    C     -0.75469237      0.99446497      0.68947268      3.98233217
    C     -1.33267359      2.04203156     -0.04244644      4.10529049
    C     -2.12156521      2.98830813      0.62576068      4.09598044
    C     -2.71006356      4.13916185     -0.11036396      3.31772509
    O     -3.34142604      5.04043944      0.38096604      6.55588066
    O     -2.47651481      4.11629931     -1.45694929      6.51479921
    C     -2.37555583      2.87275657      1.99945523      4.07560549
    C     -1.85922587      1.79817245      2.71842062      4.17653338
    C     -1.07257666      0.85720671      2.06122694      3.61858499
    F     -0.58196328     -0.17813263      2.74626524      7.23636323
    H      3.20993116      4.24785118     -0.07658978      0.89376245
    H      3.93915155      4.02261327      2.27124541      0.88776741
    H      5.02876850      2.36699052      5.05140497      0.62077588
    H     -1.13563629      2.11055949     -1.10714030      0.87573323
    H     -2.90145727      4.91007870     -1.83131281      0.62242391
    H     -2.99002688      3.61643834      2.48344048      0.88055254
    H     -2.05853854      1.68569024      3.76500297      0.88010338
   32
Geometry Step: 7
    N      1.60156342      2.61491844     -2.63091244      5.26375798
    C      1.88726718      2.45268010     -1.52686247      3.83430179
    C      2.27504277      2.30935499     -0.14731070      3.96461767
    C      2.98468726      3.34601984      0.47394934      4.07674649
    C      3.39933992      3.21677788      1.79135375      4.09634003
    C      3.13071207      2.03432034      2.49472959      4.06552668
    C      3.59133853      1.91994058      3.90539295      3.33764917
    O      2.99535454      1.38884634      4.82464385      6.52543871
    O      4.79970948      2.51364479      4.11125163      6.50121417
    C      2.43548153      0.97156633      1.89026703      3.96228056
    C      2.27595058     -0.29280638      2.56489995      3.83348487
    N      2.20240142     -1.32963903      3.06151532      5.23290469
    C      1.95019010      1.14396868      0.57936547      3.87944389
    N      1.26004558      0.05013105     -0.06574138      5.05243897
    N      0.00516612     -0.04008582     -0.02060460      5.03470272
    C     -0.76035882      0.99077237      0.68711264      3.97451613
    C     -1.32857010      2.03798472     -0.04179295      4.10924148
    C     -2.12124199      2.99062540      0.62061579      4.09328673
    C     -2.70575260      4.13337360     -0.11246220      3.31940844
    O     -3.34656629      5.04796807      0.38475874      6.56889788
    O     -2.47570645      4.11322325     -1.45471828      6.50789946
    C     -2.37446659      2.87351191      1.99386850      4.07449225
    C     -1.85692390      1.80026764      2.71060743      4.17646270
    C     -1.06982600      0.85470717      2.05727066      3.62063020
    F     -0.58362744     -0.17622933      2.74919014      7.23461537
    H      3.21077515      4.24902233     -0.07519365      0.89411881
    H      3.93974240      4.02505830      2.26962994      0.88830125
    H      5.01728672      2.36370745      5.03849003      0.61945976
    H     -1.13632247      2.10812250     -1.10666329      0.87625749
    H     -2.89795616      4.90156970     -1.81921058      0.62088201
    H     -2.99034664      3.61518400      2.48573637      0.87976818
    H     -2.05796100      1.68581532      3.76159719      0.88091347
   32
Geometry Step: 8
    N      1.60055901      2.61402464     -2.63450243      5.26362684
    C      1.88178544      2.45307961     -1.52867208      3.83514773
    C      2.27528530      2.31152467     -0.14908442      3.96425739
    C      2.98692371      3.34848530      0.47092949      4.07666491
    C      3.39871205      3.21715759      1.78937689      4.09607571
    C      3.12977865      2.03566210      2.49694977      4.06510229
    C      3.59685896      1.92045013      3.90404583      3.33655074
    O      2.99369948      1.38562616      4.82709864      6.53179372
    O      4.79952982      2.51453131      4.11756717      6.49639021
    C      2.43387908      0.97252160      1.88805353      3.96176618
    C      2.27323235     -0.29328892      2.56746715      3.83394702
    N      2.20322973     -1.33197671      3.06161676      5.23231184
    C      1.94266575      1.14371409      0.57541254      3.88187019
    N      1.25881108      0.04392416     -0.07050555      5.04920687
    N      0.01047896     -0.05072426     -0.02443556      5.03298767
    C     -0.75389298      0.98883922      0.68719932      3.97826244
    C     -1.32964970      2.03789977     -0.03912727      4.10901923
    C     -2.12340292      2.99166861      0.62379746      4.09272404
    C     -2.70365048      4.13017993     -0.11708948      3.31898574
    O     -3.34822507      5.04984227      0.38714140      6.57603261
    O     -2.47687025      4.11692577     -1.45639218      6.50262755
    C     -2.37447388      2.87127751      1.99840562      4.07240500
    C     -1.85934145      1.79921783      2.71710488      4.17551767
    C     -1.06991133      0.85650728      2.05585155      3.62000977
    F     -0.58215802     -0.17819591      2.74638038      7.23614255
    H      3.21073001      4.25024794     -0.07832640      0.89332633
    H      3.93993706      4.02355290      2.27212783      0.88918781
    H      5.02970462      2.36746234      5.05232033      0.61982963
    H     -1.13608251      2.11154717     -1.10762618      0.87768264
    H     -2.90109727      4.90956541     -1.83176418      0.62106820
    H     -2.99115535      3.61785907      2.48451473      0.87975588
    H     -2.05946150      1.68521392      3.76893826      0.87972361
   32
Geometry Step: 9
    N      1.59893385      2.61257845     -2.64031116      5.26338897
    C      1.87291581      2.45372604     -1.53160010      3.83654321
    C      2.27567772      2.31503527     -0.15195436      3.96363128
    C      2.99054235      3.35247452      0.46604325      4.07653701
    C      3.39769613      3.21777198      1.78617827      4.09562789
    C      3.12826834      2.03783312      2.50054209      4.06434635
    C      3.60579120      1.92127460      3.90186615      3.33501989
    O      2.99102153      1.38041579      4.83107057      6.54167360
    O      4.79923913      2.51596573      4.12778593      6.48887573
    C      2.43128627      0.97406726      1.88447201      3.96092316
    C      2.26883416     -0.29406968      2.57162098      3.83468907
    N      2.20456997     -1.33575917      3.06178089      5.23139000
    C      1.93049108      1.14330216      0.56901656      3.88578806
    N      1.25681362      0.03388121     -0.07821414      5.04408318
    N      0.01907531     -0.06793762     -0.03063418      5.03001701
    C     -0.74343103      0.98571133      0.68733957      3.98445750
    C     -1.33139652      2.03776233     -0.03481410      4.10865451
    C     -2.12689939      2.99335656      0.62894549      4.09168379
    C     -2.70024918      4.12501246     -0.12457657      3.31851513
    O     -3.35090903      5.05287478      0.39099661      6.58719006
    O     -2.47875331      4.12291658     -1.45910062      6.49436839
    C     -2.37448569      2.86766218      2.00574684      4.06917502
    C     -1.86325313      1.79751921      2.72761798      4.17401088
    C     -1.07004941      0.85941993      2.05355539      3.61898860
    F     -0.57978044     -0.18137789      2.74183408      7.23861411
    H      3.21065696      4.25223103     -0.08339530      0.89204934
    H      3.94025204      4.02111709      2.27616952      0.89061017
    H      5.04979720      2.37353787      5.07469822      0.62030801
    H     -1.13569425      2.11708840     -1.10918418      0.88002407
    H     -2.90617970      4.92250273     -1.85207633      0.62127762
    H     -2.99246388      3.62218744      2.48253807      0.87973186
    H     -2.06188937      1.68424083      3.78081634      0.87780654
   32
Geometry Step: 10
    N      1.60045631      2.61393325     -2.63486952      5.26360759
    C      1.88122492      2.45312047     -1.52885712      3.83523978
    C      2.27531010      2.31174652     -0.14926579      3.96421825
    C      2.98715239      3.34873741      0.47062070      4.07665844
    C      3.39864785      3.21719642      1.78917475      4.09604659
    C      3.12968321      2.03579930      2.49717679      4.06505884
    C      3.59742344      1.92050223      3.90390808      3.33644687
    O      2.99353024      1.38529688      4.82734965      6.53243104
    O      4.79951145      2.51462196      4.11821296      6.49590405
    C      2.43371523      0.97261928      1.88782719      3.96171671
    C      2.27295440     -0.29333826      2.56772966      3.83399819
    N      2.20331443     -1.33221575      3.06162713      5.23224653
    C      1.94189636      1.14368806      0.57500834      3.88211842
    N      1.25868485      0.04328949     -0.07099270      5.04887680
    N      0.01102221     -0.05181207     -0.02482729      5.03280778
    C     -0.75323183      0.98864155      0.68720818      3.97864992
    C     -1.32976009      2.03789109     -0.03885469      4.10899453
    C     -2.12362388      2.99177528      0.62412279      4.09266559
    C     -2.70343554      4.12985336     -0.11756263      3.31895073
    O     -3.34839469      5.05003391      0.38738503      6.57675088
    O     -2.47698925      4.11730437     -1.45656335      6.50209472
    C     -2.37447463      2.87104904      1.99886956      4.07219835
    C     -1.85958866      1.79911049      2.71776927      4.17542278
    C     -1.06992006      0.85669135      2.05570645      3.61994021
    F     -0.58200777     -0.17839700      2.74609307      7.23629907
    H      3.21072539      4.25037326     -0.07864673      0.89324491
    H      3.93995697      4.02339896      2.27238325      0.88927855
    H      5.03097438      2.36784629      5.05373452      0.61986382
    H     -1.13605797      2.11189735     -1.10772464      0.87783067
    H     -2.90141846      4.91038299     -1.83304782      0.62108413
    H     -2.99123805      3.61813261      2.48438981      0.87975418
    H     -2.05961493      1.68515243      3.76968890      0.87960111
   32
Geometry Step: 11
    N      1.59825920      2.61248485     -2.64044881      5.26396281
    C      1.87593340      2.45469467     -1.52908101      3.83472836
    C      2.27089103      2.30950574     -0.15339016      3.96480635
    C      2.98879118      3.34929222      0.46825775      4.07686268
    C      3.39790803      3.21657861      1.78808171      4.09433933
    C      3.13014731      2.03630868      2.49979185      4.06650933
    C      3.60035666      1.91933798      3.90894270      3.33509210
    O      2.99448380      1.38288853      4.82513749      6.52817815
    O      4.80323592      2.51513206      4.13444610      6.50016295
    C      2.42933666      0.97367797      1.88400988      3.96181361
    C      2.26996083     -0.29018743      2.56816624      3.83484277
    N      2.20429531     -1.33621255      3.06240319      5.23262473
    C      1.93580896      1.14239577      0.57176215      3.88074925
    N      1.26321105      0.03860968     -0.07663871      5.04956556
    N      0.01038601     -0.05882752     -0.02456342      5.03332295
    C     -0.74845618      0.98475866      0.68441504      3.97666562
    C     -1.32677613      2.03333416     -0.03467748      4.10861810
    C     -2.12474061      2.99164631      0.62461759      4.09517936
    C     -2.70494795      4.13159138     -0.12043256      3.31835331
    O     -3.34848120      5.04933887      0.38893764      6.57480215
    O     -2.48138406      4.12791411     -1.46276162      6.50475951
    C     -2.37582667      2.87043095      2.00322293      4.07146875
    C     -1.86041487      1.79697721      2.72159423      4.17566611
    C     -1.06701552      0.85561336      2.05344738      3.61989326
    F     -0.58128643     -0.17911457      2.74178076      7.23517463
    H      3.21174755      4.25464024     -0.08443571      0.89332849
    H      3.94051355      4.02199585      2.27556052      0.88998678
    H      5.04363193      2.37388047      5.06230136      0.61924415
    H     -1.13676008      2.11690848     -1.10663410      0.87932578
    H     -2.90158256      4.91316092     -1.84462670      0.62040453
    H     -2.99271912      3.62183373      2.48394875      0.87957263
    H     -2.06207866      1.68373312      3.78163880      0.87999589
   32
Geometry Step: 12
    N      1.59834730      2.61254293     -2.64022509      5.26394974
    C      1.87614558      2.45463155     -1.52907204      3.83474723
    C      2.27106823      2.30959559     -0.15322478      3.96478372
    C      2.98872546      3.34926997      0.46835250      4.07685541
    C      3.39793770      3.21660339      1.78812554      4.09440700
    C      3.13012870      2.03628826      2.49968699      4.06645244
    C      3.60023904      1.91938466      3.90874082      3.33514465
    O      2.99444557      1.38298510      4.82522620      6.52834912
    O      4.80308657      2.51511160      4.13379518      6.49999086
    C      2.42951223      0.97363552      1.88416295      3.96180728
    C      2.27008086     -0.29031377      2.56814874      3.83480717
    N      2.20425598     -1.33605228      3.06237207      5.23261268
    C      1.93605306      1.14244759      0.57189231      3.88080199
    N      1.26302956      0.03879733     -0.07641231      5.04953887
    N      0.01041152     -0.05854622     -0.02457400      5.03330253
    C     -0.74864768      0.98491436      0.68452704      3.97674266
    C     -1.32689578      2.03351689     -0.03484498      4.10863149
    C     -2.12469583      2.99165148      0.62459775      4.09507898
    C     -2.70488730      4.13152169     -0.12031748      3.31837573
    O     -3.34847773      5.04936674      0.38887538      6.57488138
    O     -2.48120784      4.12748868     -1.46251308      6.50465162
    C     -2.37577246      2.87045573      2.00304837      4.07149812
    C     -1.86038174      1.79706275      2.72144086      4.17565721
    C     -1.06713199      0.85565659      2.05353796      3.61989703
    F     -0.58131535     -0.17908579      2.74195367      7.23521979
    H      3.21170656      4.25446914     -0.08420359      0.89332563
    H      3.94049123      4.02205211      2.27543312      0.88995907
    H      5.04312439      2.37363851      5.06195784      0.61927068
    H     -1.13673193      2.11670754     -1.10667783      0.87926634
    H     -2.90157598      4.91304953     -1.84416241      0.62043254
    H     -2.99265973      3.62168532      2.48396644      0.87958023
    H     -2.06197987      1.68379003      3.78115963      0.87998080
   32
Geometry Step: 13
    N      1.59708318      2.60997583     -2.63958179      5.26249018
    C      1.86943357      2.45760076     -1.53731180      3.83535743
    C      2.26637807      2.30812300     -0.15495058      3.96391510
    C      2.98748139      3.34667774      0.46451326      4.07675550
    C      3.39811841      3.21598386      1.78863953      4.09483274
    C      3.13081780      2.03494052      2.49960138      4.06727276
    C      3.60337020      1.91901971      3.91568826      3.33511536