   35
Geometry Step: 0
    C      4.83501201      3.82999012      0.53168571      3.95678599
    O      4.46992074      2.75388952     -0.31781398      6.27691533
    C      3.79395269      1.70298534      0.19849076      3.68951926
    C      3.40449794      1.61533677      1.54758011      4.20557051
    C      2.70710068      0.48312310      2.00464095      4.05560965
    C      2.32389590      0.42513970      3.44349165      3.31781756
    O      2.59397711      1.29358811      4.27036900      6.56936304
    O      1.61992095     -0.67809382      3.82121107      6.50278704
    C      2.37789529     -0.55855205      1.12229634      4.15933292
    C      2.74664430     -0.46867161     -0.23136138      3.85528150
    N      2.55019454     -1.59814615     -1.09941646      5.06205975
    N      1.40530631     -2.10479049     -1.23110766      5.01986082
    C      0.22048385     -1.44335498     -0.78460950      3.84303561
    C     -0.14397346     -0.21955074     -1.37845160      4.15910738
    C     -1.39321520      0.34327877     -1.11596735      4.04644513
    C     -2.30409258     -0.29773416     -0.27206207      4.20719288
    C     -1.94698341     -1.52461039      0.29811627      3.58968507
    F     -2.82247573     -2.12177919      1.10743306      7.23754557
    C     -0.69780439     -2.13635773      0.05290553      4.20807687
    C     -0.24739361     -3.41187095      0.67048663      3.32658651
    O      0.91823998     -3.80892635      0.61375440      6.56731215
    O     -1.18437779     -4.14559545      1.31906688      6.47962855
    C      3.48153520      0.64546305     -0.69671116      4.05939111
    C      3.86164369      0.73522833     -2.08303290      3.81512715
    N      4.15502176      0.80323359     -3.19784482      5.28852840
    H      5.48688416      3.48669827      1.34790378      0.94358851
    H      5.37691333      4.55563361     -0.07940714      0.92969429
    H      3.94657387      4.31380864      0.96335881      0.94584584
    H      3.63284984      2.39803389      2.26410583      0.88083969
    H      1.42763853     -0.62160739      4.77083666      0.62177544
    H      1.86882295     -1.44625514      1.48539377      0.87250561
    H      0.55212895      0.27552801     -2.04864009      0.89437539
    H     -1.66063993      1.29238568     -1.57204534      0.90284900
    H     -3.27447634      0.13707795     -0.05690057      0.88456088
    H     -0.76945795     -4.94679360      1.67535408      0.62539963
   35
Geometry Step: 1
    C      4.83506756      3.82993366      0.53169238      3.95685261
    O      4.47003687      2.75384223     -0.31797516      6.27695759
    C      3.79398567      1.70305519      0.19872658      3.68954125
    C      3.40446398      1.61537688      1.54745487      4.20549436
    C      2.70704422      0.48314113      2.00480609      4.05570026
    C      2.32394263      0.42538144      3.44349612      3.31775626
    O      2.59401402      1.29352454      4.27021743      6.56909458
    O      1.61994947     -0.67813682      3.82119733      6.50304153
    C      2.37792820     -0.55848168      1.12219292      4.15922491
    C      2.74670686     -0.46860289     -0.23130266      3.85523533
    N      2.55028749     -1.59813028     -1.09936130      5.06219393
    N      1.40502692     -2.10488600     -1.23105621      5.01988869
    C      0.22054074     -1.44317375     -0.78472872      3.84300670
    C     -0.14413583     -0.21963925     -1.37834932      4.15883804
    C     -1.39304544      0.34333359     -1.11608741      4.04654718
    C     -2.30425714     -0.29795948     -0.27186905      4.20731014
    C     -1.94685252     -1.52464194      0.29799980      3.58959207
    F     -2.82247767     -2.12184238      1.10751272      7.23774627
    C     -0.69796921     -2.13629439      0.05304100      4.20808828
    C     -0.24736251     -3.41188436      0.67048004      3.32661571
    O      0.91828268     -3.80891245      0.61388386      6.56720320
    O     -1.18448056     -4.14564278      1.31902947      6.47964007
    C      3.48157049      0.64546208     -0.69674288      4.05937526
    C      3.86163356      0.73517290     -2.08312667      3.81509739
    N      4.15502514      0.80332128     -3.19781301      5.28849082
    H      5.48674198      3.48668969      1.34788779      0.94355050
    H      5.37683463      4.55563223     -0.07935137      0.92967085
    H      3.94656263      4.31367001      0.96339452      0.94586750
    H      3.63285709      2.39800481      2.26412261      0.88089876
    H      1.42771547     -0.62160259      4.77082516      0.62178699
    H      1.86884446     -1.44626458      1.48540033      0.87251443
    H      0.55220836      0.27555946     -2.04858638      0.89449135
    H     -1.66058035      1.29243564     -1.57207999      0.90280430
    H     -3.27444612      0.13707501     -0.05702183      0.88447528
    H     -0.76949960     -4.94678388      1.67520019      0.62540760
   35
Geometry Step: 2
    C      4.83502405      3.82997788      0.53168716      3.95680191
    O      4.46994592      2.75387927     -0.31784892      6.27692251
    C      3.79395984      1.70300048      0.19854189      3.68951992
    C      3.40449058      1.61534546      1.54755296      4.20555154
    C      2.70708844      0.48312701      2.00467676      4.05563423
    C      2.32390603      0.42519211      3.44349262      3.31780382
    O      2.59398511      1.29357433      4.27033614      6.56930655
    O      1.61992713     -0.67810314      3.82120809      6.50284118
    C      2.37790242     -0.55853679      1.12227392      4.15931164
    C      2.74665786     -0.46865671     -0.23134865      3.85527137
    N      2.55021469     -1.59814271     -1.09940450      5.06208393
    N      1.40524573     -2.10481120     -1.23109650      5.01986566
    C      0.22049618     -1.44331568     -0.78463535      3.84303431
    C     -0.14400866     -0.21956993     -1.37842943      4.15905022
    C     -1.39317839      0.34329066     -1.11599338      4.04647047
    C     -2.30412826     -0.29778301     -0.27202022      4.20721631
    C     -1.94695503     -1.52461723      0.29809102      3.58966779
    F     -2.82247615     -2.12179289      1.10745033      7.23758877
    C     -0.69784013     -2.13634400      0.05293490      4.20808180
    C     -0.24738687     -3.41187385      0.67048520      3.32659008
    O      0.91824924     -3.80892334      0.61378247      6.56728246
    O     -1.18440008     -4.14560571      1.31905877      6.47963372
    C      3.48154285      0.64546284     -0.69671804      4.05938675
    C      3.86164149      0.73521631     -2.08305323      3.81511762
    N      4.15502249      0.80325261     -3.19783792      5.28852424
    H      5.48685333      3.48669641      1.34790031      0.94358013
    H      5.37689626      4.55563331     -0.07939505      0.92968973
    H      3.94657143      4.31377858      0.96336655      0.94585084
    H      3.63285141      2.39802759      2.26410947      0.88085347
    H      1.42765521     -0.62160635      4.77083416      0.62177787
    H      1.86882761     -1.44625718      1.48539519      0.87250665
    H      0.55214617      0.27553483     -2.04862845      0.89439982
    H     -1.66062701      1.29239651     -1.57205286      0.90283957
    H     -3.27446978      0.13707731     -0.05692686      0.88454199
    H     -0.76946698     -4.94679149      1.67532072      0.62540112
