   32
Geometry Step: 0
    N      1.60138165      2.61620599     -2.62898639      5.27490758
    C      1.89840770      2.45317647     -1.51946721      3.83176770
    C      2.27067379      2.30102541     -0.14238464      3.97214130
    C      2.97851043      3.34018957      0.47475291      4.07441743
    C      3.39851913      3.21116601      1.79656914      4.10548289
    C      3.13912542      2.02923827      2.50502022      4.06297967
    C      3.59200779      1.92721687      3.90935607      3.33167436
    O      2.99559584      1.39138011      4.81931212      6.53438679
    O      4.78911923      2.51091353      4.08310777      6.48899120
    C      2.43784169      0.97685729      1.89284221      3.96813809
    C      2.28044277     -0.28840528      2.55775310      3.83779874
    N      2.20080250     -1.32982720      3.06358540      5.24093137
    C      1.95284155      1.12830002      0.57296006      3.86594302
    N      1.25604993      0.06884858     -0.05322640      5.04293626
    N      0.00000000      0.00000000      0.00000000      5.03000529
    C     -0.70725459     -1.05028894     -0.61949193      3.93950973
    C     -1.01904104     -0.95984951     -1.98288388      4.11678070
    C     -1.68838708     -2.00612927     -2.63457636      4.09283258
    C     -2.05109682     -1.93282195     -4.07050162      3.31497396
    O     -2.69226837     -2.76622826     -4.68193243      6.57256057
    O     -1.59222303     -0.81841511     -4.66061449      6.49397798
    C     -2.03212859     -3.16283255     -1.92276723      4.08039552
    C     -1.69312545     -3.27846980     -0.57532689      4.17504577
    C     -1.02590548     -2.23307746      0.05848965      3.62517481
    F     -0.70332953     -2.37628690      1.35046241      7.24391200
    H      3.21295973      4.25285938     -0.07355751      0.89606878
    H      3.94141969      4.03021396      2.26742392      0.89135369
    H      4.99978404      2.35549671      5.02989260      0.62224479
    H     -0.72909498     -0.06538120     -2.53230786      0.88182019
    H     -1.89591051     -0.88248369     -5.59059287      0.62403026
    H     -2.54915187     -3.98211881     -2.42073051      0.88190072
    H     -1.93413530     -4.17865184     -0.01680777      0.88491628
   32
Geometry Step: 1
    N      1.61138756      2.60918283     -2.59742197      5.25410038
    C      1.87333760      2.45847189     -1.56640967      3.83146386
    C      2.27654097      2.31233631     -0.15582927      3.96462551
    C      2.99297077      3.34922231      0.48599131      4.07540932
    C      3.39952702      3.22273341      1.78433721      4.09066506
    C      3.12564760      2.03622605      2.48619580      4.04800135
    C      3.59263826      1.92933697      3.85907553      3.36332219
    O      2.97641838      1.37000080      4.86219707      6.54681894
    O      4.82586144      2.51506604      4.15889201      6.50682787
    C      2.43319885      0.96699935      1.88318963      3.95453239
    C      2.27061255     -0.32910211      2.58602029      3.83453681
    N      2.20267964     -1.29649305      3.04484875      5.22521169
    C      1.93802554      1.14460631      0.59010810      3.86505982
    N      1.29904492      0.02612509     -0.08474382      5.07270564
    N     -0.04075263      0.07083988      0.06140565      5.06314625
    C     -0.66602065     -1.08561924     -0.67483264      3.95955679
    C     -1.02123070     -0.94418136     -1.98882670      4.10222298
    C     -1.70311017     -2.02437103     -2.62749945      4.07465357
    C     -2.02043084     -1.91159280     -4.00259855      3.34817882
    O     -2.72050956     -2.80180771     -4.71463544      6.61367836
    O     -1.60450161     -0.79958172     -4.73663596      6.51089966
    C     -2.03362449     -3.17853379     -1.90687307      4.05578143
    C     -1.70391139     -3.29218956     -0.57751356      4.18183880
    C     -1.04336537     -2.25104050      0.08464239      3.60917855
    F     -0.69846386     -2.36808166      1.34926367      7.21589133
    H      3.20857875      4.24475581     -0.07417270      0.89459608
    H      3.93794677      4.02238740      2.26905686      0.88716205
    H      5.01498246      2.37156885      5.00692358      0.61013827
    H     -0.73118624     -0.07042301     -2.53188792      0.87248753
    H     -1.88069076     -0.86334466     -5.57674641      0.60972817
    H     -2.54647663     -3.97431124     -2.42353276      0.87344850
    H     -1.93269393     -4.17736544     -0.01661635      0.88413203
   32
Geometry Step: 2
    N      1.60324085      2.61490101     -2.62312139      5.27053872
    C      1.89374941      2.45416042     -1.52818961      3.83121960
    C      2.27176398      2.30312709     -0.14488279      3.97069528
    C      2.98119731      3.34186795      0.47684112      4.07482045
    C      3.39870641      3.21331535      1.79429632      4.10222980
    C      3.13662110      2.03053667      2.50152244      4.05994780
    C      3.59212494      1.92761081      3.90001342      3.33683579
    O      2.99203247      1.38740761      4.82728059      6.53855141
    O      4.79594632      2.51168511      4.09718928      6.49252112
    C      2.43697900      0.97502558      1.89104866      3.96540655
    C      2.27861621     -0.29596718      2.56300544      3.83674330
    N      2.20115129     -1.32363336      3.06010393      5.23732809
    C      1.95008858      1.13132990      0.57614635      3.86473093
    N      1.26403885      0.06091011     -0.05908266      5.05069226
    N     -0.00757227      0.01316279      0.01140981      5.03869810
    C     -0.69959289     -1.05685368     -0.62977482      3.94241367
    C     -1.01944790     -0.95693820     -1.98398812      4.11372739
    C     -1.69112278     -2.00951878     -2.63326139      4.08901139
    C     -2.04539876     -1.92887735     -4.05788451      3.31968531
    O     -2.69751588     -2.77283930     -4.68800899      6.58341512
    O     -1.59450452     -0.81491567     -4.67474008      6.49703174
    C     -2.03240654     -3.16575000     -1.91981392      4.07526805
    C     -1.69512959     -3.28101907     -0.57573319      4.17651938
    C     -1.02914971     -2.23641518      0.06334910      3.62194735
    F     -0.70242544     -2.37476228      1.35023968      7.23876255
    H      3.21214570      4.25135365     -0.07367182      0.89579521
    H      3.94077439      4.02875971      2.26772734      0.89052905
    H      5.00260807      2.35848308      5.02562471      0.61932296
    H     -0.72948356     -0.06631802     -2.53222983      0.88004451
    H     -1.89308252     -0.87892746     -5.58802005      0.62067368
    H     -2.54865478     -3.98066808     -2.42125120      0.88013367
    H     -1.93386747     -4.17841281     -0.01677220      0.88475976
   32
Geometry Step: 3
    N      1.60109386      2.61544153     -2.63277197      5.27144954
    C      1.89200669      2.45283671     -1.52033884      3.82977508
    C      2.27265038      2.30597651     -0.14920617      3.96732550
    C      2.98382134      3.34386895      0.47656798      4.07539282
    C      3.39928607      3.21586303      1.79233172      4.09820867
    C      3.13296982      2.03245847      2.49609897      4.06131308
    C      3.59033604      1.92352078      3.89988898      3.33943620
    O      2.99312839      1.38724778      4.82815374      6.53107577
    O      4.80066382      2.51274777      4.10918348      6.50030997
    C      2.43521747      0.97028648      1.89027552      3.96185154
    C      2.27728871     -0.28712269      2.56106790      3.83528665
    N      2.20024878     -1.33169811      3.06324742      5.23775282
    C      1.94664696      1.13627607      0.57825184      3.86832058
    N      1.26295936      0.04930776     -0.06717094      5.05444240
    N     -0.00759103      0.03103144      0.02676960      5.04323696
    C     -0.68597497     -1.06615383     -0.63975893      3.95084223
    C     -1.02111240     -0.95510351     -1.98693773      4.10839634
    C     -1.69391775     -2.01279271     -2.62928885      4.08954093
    C     -2.04598399     -1.93130543     -4.05400748      3.32103846
    O     -2.69607797     -2.77117627     -4.68761918      6.57849292
    O     -1.59644427     -0.81224937     -4.68544080      6.50563942
    C     -2.03323307     -3.16998348     -1.91688422      4.07281136
    C     -1.69751348     -3.28509988     -0.57347227      4.17776875
    C     -1.03387663     -2.23928692      0.06698454      3.61867506
    F     -0.70087814     -2.37217322      1.35077714      7.23649329
    H      3.21109036      4.24947792     -0.07411518      0.89540176
    H      3.93997837      4.02666979      2.26853215      0.88909046
    H      5.00914929      2.36180889      5.02813115      0.61835173
    H     -0.73002175     -0.06690118     -2.53287086      0.87827692
    H     -1.89150289     -0.87420036     -5.59233554      0.61973528
    H     -2.54809977     -3.97877230     -2.42231795      0.87981546
    H     -1.93387733     -4.17898026     -0.01635360      0.88445202
   32
Geometry Step: 4
    N      1.60145729      2.61535004     -2.63113839      5.27130492
    C      1.89230168      2.45306078     -1.52166777      3.82999783
    C      2.27250033      2.30549418     -0.14847434      3.96788931
    C      2.98337716      3.34353024      0.47661421      4.07530670
    C      3.39918795      3.21543178      1.79266427      4.09886292
    C      3.13358788      2.03213316      2.49701702      4.06109359
    C      3.59063885      1.92421311      3.89991005      3.33898746
    O      2.99294288      1.38727484      4.82800594      6.53234485
    O      4.79986528      2.51256789      4.10715318      6.49899398
    C      2.43551565      0.97108868      1.89040639      3.96245128
    C      2.27751342     -0.28861982      2.56139587      3.83551192
    N      2.20040155     -1.33033296      3.06271531      5.23769157
    C      1.94722953      1.13543882      0.57789544      3.86769757
    N      1.26314209      0.05127173     -0.06580181      5.05385604
    N     -0.00758786      0.02800676      0.02416960      5.04254473
    C     -0.68828012     -1.06457956     -0.63806888      3.94939348
    C     -1.02083064     -0.95541407     -1.98643844      4.10926562
    C     -1.69344463     -2.01223852     -2.62996130      4.08946377
    C     -2.04588493     -1.93089442     -4.05466376      3.32080384
    O     -2.69632137     -2.77145777     -4.68768516      6.57933117
    O     -1.59611593     -0.81270070     -4.68362946      6.50418845
    C     -2.03309316     -3.16926686     -1.91738014      4.07320434
    C     -1.69710995     -3.28440911     -0.57385498      4.17756651
    C     -1.03307649     -2.23880081      0.06636916      3.61921272
    F     -0.70114005     -2.37261147      1.35068616      7.23687394
    H      3.21126900      4.24979543     -0.07404013      0.89546965
    H      3.94011311      4.02702356      2.26839592      0.88933275
    H      5.00804203      2.36124592      5.02770688      0.61851676
    H     -0.72993065     -0.06680247     -2.53276235      0.87857257
    H     -1.89177028     -0.87500053     -5.59160505      0.61989533
    H     -2.54819371     -3.97909320     -2.42213738      0.87986977
    H     -1.93387566     -4.17888421     -0.01642446      0.88450466
   32
Geometry Step: 5
    N      1.60182832      2.61419772     -2.63085387      5.26939237
    C      1.88665421      2.45382971     -1.52740287      3.83130123
    C      2.27371764      2.30688397     -0.14780493      3.96531620
    C      2.98493218      3.34500632      0.47391779      4.07619029
    C      3.39944546      3.21668560      1.79132955      4.09682742
    C      3.13084629      2.03363785      2.49391983      4.06421410
    C      3.59057889      1.92003641      3.90472274      3.33763508
    O      2.99561178      1.38841559      4.82503267      6.52554702
    O      4.79998431      2.51360502      4.11125984      6.50257255
    C      2.43385325      0.97072354      1.88774776      3.96104119
    C      2.27468488     -0.29259674      2.56577731      3.83571151
    N      2.20011408     -1.32866936      3.06116636      5.23697951
    C      1.94433961      1.13862987      0.57664429      3.87102792
    N      1.25746311      0.04379232     -0.07168826      5.05485866
    N     -0.00420245      0.04033464      0.03592622      5.04314176
    C     -0.67384460     -1.07209776     -0.64189071      3.95612516
    C     -1.02252822     -0.95601193     -1.98878796      4.10583219
    C     -1.69571671     -2.01418925     -2.62612290      4.09219575
    C     -2.04934597     -1.93402185     -4.05836489      3.31898522
    O     -2.69188023     -2.76651340     -4.68372708      6.57016636
    O     -1.59685060     -0.81211369     -4.68577206      6.50907455
    C     -2.03375285     -3.17270447     -1.91483061      4.07345836
    C     -1.69908009     -3.28834231     -0.56982399      4.17759566
    C     -1.03658810     -2.23883486      0.06635693      3.61792773
    F     -0.69958328     -2.36967009      1.35191615      7.23888000
    H      3.21055133      4.24887978     -0.07518927      0.89505017
    H      3.93971943      4.02532838      2.26977992      0.88911279
    H      5.01694589      2.36370444      5.03824942      0.61960248
    H     -0.73054771     -0.06653211     -2.53443191      0.87839929
    H     -1.89227502     -0.87052305     -5.60284503      0.62120433
    H     -2.54810128     -3.97796820     -2.42374809      0.88066260
    H     -1.93454330     -4.18108170     -0.01509075      0.88397057
   32
Geometry Step: 6
    N      1.60179793      2.61429208     -2.63087717      5.26954471
    C      1.88711669      2.45376674     -1.52693321      3.83119063
    C      2.27361795      2.30677016     -0.14785975      3.96552511
    C      2.98480484      3.34488544      0.47413861      4.07611718
    C      3.39942438      3.21658292      1.79143885      4.09698519
    C      3.13107081      2.03351463      2.49417346      4.06395663
    C      3.59058380      1.92037845      3.90432862      3.33773416
    O      2.99539322      1.38832217      4.82527616      6.52611692
    O      4.79997456      2.51352008      4.11092354      6.50227835
    C      2.43398938      0.97075345      1.88796548      3.96116027
    C      2.27491651     -0.29227106      2.56541851      3.83569220
    N      2.20013762     -1.32880560      3.06129320      5.23703708
    C      1.94457627      1.13836855      0.57674675      3.87075439
    N      1.25792818      0.04440483     -0.07120620      5.05479588
    N     -0.00447968      0.03932509      0.03496345      5.04310077
    C     -0.67502676     -1.07148208     -0.64157774      3.95556266
    C     -1.02238920     -0.95596297     -1.98859555      4.10610396
    C     -1.69553064     -2.01402950     -2.62643723      4.09197390
    C     -2.04906254     -1.93376574     -4.05806180      3.31911883
    O     -2.69224392     -2.76691830     -4.68405121      6.57093680
    O     -1.59679043     -0.81216176     -4.68559660      6.50867330
    C     -2.03369883     -3.17242295     -1.91503939      4.07344351
    C     -1.69891875     -3.28802021     -0.57015409      4.17759608
    C     -1.03630053     -2.23883207      0.06635793      3.61802889
    F     -0.69971077     -2.36991097      1.35181543      7.23872020
    H      3.21061011      4.24895477     -0.07509517      0.89508507
    H      3.93975167      4.02546720      2.26966659      0.88913024
    H      5.01621674      2.36350310      5.03738607      0.61951378
    H     -0.73049717     -0.06655425     -2.53429519      0.87841309
    H     -1.89223369     -0.87088972     -5.60192456      0.62109601
    H     -2.54810885     -3.97806032     -2.42361618      0.88059882
    H     -1.93448863     -4.18090175     -0.01519997      0.88401538
   32
Geometry Step: 7
    N      1.60062012      2.61328291     -2.63562271      5.26960387
    C      1.88204478      2.45433622     -1.52748889      3.83210591
    C      2.27263101      2.30696167     -0.14835875      3.96520826
    C      2.98563129      3.34520407      0.47031765      4.07609915
    C      3.39871705      3.21609174      1.78964379      4.09763793
    C      3.12990394      2.03348578      2.49621935      4.06366680
    C      3.59634723      1.92142038      3.90296127      3.33633272
    O      2.99380081      1.38487718      4.82744271      6.53343587
    O      4.79871758      2.51416146      4.11508202      6.49587947
    C      2.43135394      0.97227364      1.88465490      3.96092579
    C      2.27145731     -0.29121927      2.56716931      3.83649632
    N      2.19923732     -1.33163906      3.06197048      5.23627839
    C      1.94303509      1.13730474      0.57182185      3.86928125
    N      1.25781933      0.04600903     -0.07369767      5.05522327
    N     -0.00720400      0.04101867      0.04134296      5.04210672
    C     -0.66178032     -1.07572494     -0.63985094      3.95500083
    C     -1.02170762     -0.95887032     -1.98650889      4.10672551
    C     -1.69851255     -2.01502601     -2.62581548      4.09169209
    C     -2.04717177     -1.92771322     -4.05802470      3.31837006
    O     -2.69335694     -2.77010522     -4.68486663      6.57834588
    O     -1.59816569     -0.81248475     -4.68750888      6.50190588
    C     -2.03361566     -3.17472510     -1.91092732      4.07221654
    C     -1.70088167     -3.29095962     -0.56599090      4.17612829
    C     -1.03656824     -2.23564841      0.06412298      3.61846306
    F     -0.69854653     -2.36586638      1.35284258      7.24105675
    H      3.21051445      4.25019712     -0.07826929      0.89452483
    H      3.94002144      4.02429401      2.27215703      0.88995584
    H      5.02782337      2.36682225      5.05136856      0.62010023
    H     -0.73178665     -0.06584313     -2.53755076      0.87997938
    H     -1.89254118     -0.86509240     -5.61547961      0.62156191
    H     -2.54890659     -3.97840686     -2.42636720      0.88052442
    H     -1.93650037     -4.18659579     -0.01141717      0.88316679
   32
Geometry Step: 8
    N      1.60068946      2.61334232     -2.63534333      5.26960529
    C      1.88234337      2.45430270     -1.52745618      3.83205085
    C      2.27268911      2.30695040     -0.14832938      3.96522703
    C      2.98558263      3.34518531      0.47054260      4.07609533
    C      3.39875869      3.21612066      1.78974947      4.09760356
    C      3.12997263      2.03348748      2.49609890      4.06368272
    C      3.59600793      1.92135904      3.90304177      3.33641410
    O      2.99389456      1.38508000      4.82731516      6.53300778
    O      4.79879158      2.51412370      4.11483720      6.49625113
    C      2.43150909      0.97218414      1.88484980      3.96093645
    C      2.27166096     -0.29128119      2.56706623      3.83644608
    N      2.19929032     -1.33147225      3.06193061      5.23632381
    C      1.94312582      1.13736737      0.57211179      3.86937083
    N      1.25782574      0.04591458     -0.07355099      5.05519912
    N     -0.00704361      0.04091897      0.04096738      5.04216354
    C     -0.66256017     -1.07547515     -0.63995260      3.95502076
    C     -1.02174775     -0.95869915     -1.98663174      4.10669584
    C     -1.69833700     -2.01496734     -2.62585209      4.09171344
    C     -2.04728309     -1.92806955     -4.05802689      3.31841505
    O     -2.69329141     -2.76991760     -4.68481862      6.57791254
    O     -1.59808473     -0.81246573     -4.68739630      6.50229672
    C     -2.03362055     -3.17458957     -1.91116941      4.07229158
    C     -1.70076611     -3.29078657     -0.56623600      4.17621908
    C     -1.03655248     -2.23583584      0.06425456      3.61843851
    F     -0.69861507     -2.36610450      1.35278211      7.24092203
    H      3.21052008      4.25012398     -0.07808243      0.89455696
    H      3.94000556      4.02436308      2.27201041      0.88990885
    H      5.02714006      2.36662684      5.05054538      0.62006598
    H     -0.73171073     -0.06588499     -2.53735909      0.87988852
    H     -1.89252308     -0.86543370     -5.61468159      0.62153377
    H     -2.54885963     -3.97838646     -2.42620524      0.88052677
    H     -1.93638193     -4.18626057     -0.01163988      0.88321599
   32
Geometry Step: 9
    N      1.59973254      2.61160961     -2.63779790      5.26986498
    C      1.87651438      2.45552365     -1.53021439      3.83182129
    C      2.26985279      2.30702186     -0.15198064      3.96720339
    C      2.98631863      3.34475790      0.46813976      4.07538421
    C      3.39795369      3.21488462      1.78808371      4.09785015
    C      3.12963070      2.03344921      2.49750022      4.06422345
    C      3.59801536      1.91975953      3.90692444      3.33514139
    O      2.99503743      1.38310606      4.82511621      6.52944680
    O      4.80122101      2.51446883      4.12741178      6.49983383
    C      2.42856442      0.97331160      1.88359434      3.96252846
    C      2.26743148     -0.29112238      2.56845254      3.83694467
    N      2.19829303     -1.33185345      3.06158746      5.23695181
    C      1.94391758      1.13528946      0.56784306      3.86747034
    N      1.25601184      0.05316331     -0.07381785      5.05377367
    N     -0.00712827      0.03532630      0.04336551      5.04031705
    C     -0.65381265     -1.07660228     -0.63918372      3.95405333
    C     -1.01835968     -0.96105449     -1.98313384      4.10699561
    C     -1.70006608     -2.01420019     -2.62463128      4.09335319
    C     -2.04896525     -1.92625921     -4.06036767      3.31784264
    O     -2.69226358     -2.77062638     -4.68364056      6.57585360
    O     -1.60131715     -0.81177577     -4.69699515      6.50438495
    C     -2.03429303     -3.17689652     -1.90848522      4.07233328
    C     -1.70213586     -3.29204193     -0.56237917      4.17621935
    C     -1.03472284     -2.23529135      0.06539812      3.61852032
    F     -0.69820011     -2.36108533      1.35221702      7.24003138
    H      3.21070094      4.25234567     -0.08252679      0.89494227
    H      3.94019452      4.02285859      2.27447550      0.89060583
    H      5.03760777      2.37156646      5.05810628      0.61978845
    H     -0.73406152     -0.06698381     -2.54012850      0.88103272
    H     -1.89060982     -0.85892641     -5.62222746      0.62113825
    H     -2.54968386     -3.97900684     -2.42878061      0.88054485
    H     -1.93894815     -4.19289591     -0.00655361      0.88360450
   32
Geometry Step: 10
    N      1.59818422      2.60880603     -2.64176948      5.27027878
    C      1.86708286      2.45749918     -1.53467727      3.83148382
    C      2.26526353      2.30713750     -0.15788850      3.97045947
    C      2.98750949      3.34406635      0.46425189      4.07422390
    C      3.39665117      3.21288466      1.78538847      4.09829140
    C      3.12907744      2.03338728      2.49976762      4.06505374
    C      3.60126345      1.91717147      3.91320674      3.33309305
    O      2.99688663      1.37991217      4.82155823      6.52361420
    O      4.80515191      2.51502726      4.14775787      6.50586937
    C      2.42379985      0.97513587      1.88156296      3.96517964
    C      2.26058804     -0.29086541      2.57069565      3.83778473
    N      2.19667937     -1.33247026      3.06103223      5.23798108
    C      1.94519868      1.13192733      0.56093612      3.86445738
    N      1.25307690      0.06489200     -0.07424964      5.05131290
    N     -0.00726524      0.02627718      0.04724577      5.03728681
    C     -0.63965887     -1.07842602     -0.63793963      3.95256957
    C     -1.01287767     -0.96486551     -1.97747412      4.10742839
    C     -1.70286378     -2.01295891     -2.62265598      4.09599900
    C     -2.05168705     -1.92333002     -4.06415514      3.31690990
    O     -2.69060052     -2.77177320     -4.68173443      6.57249867
    O     -1.60654732     -0.81065938     -4.71252643      6.50789165
    C     -2.03538111     -3.18062926     -1.90414210      4.07236298
    C     -1.70435217     -3.29407315     -0.55613869      4.17624506
    C     -1.03176243     -2.23441035      0.06724845      3.61862846
    F     -0.69752869     -2.35296415      1.35130269      7.23854180
    H      3.21099359      4.25594044     -0.08971792      0.89556788
    H      3.94050026      4.02042428      2.27846412      0.89173037
    H      5.05454487      2.37955892      5.07034007      0.61919111
    H     -0.73786517     -0.06876173     -2.54460949      0.88287638
    H     -1.88751409     -0.84839740     -5.63443692      0.62042096
    H     -2.55101750     -3.98001063     -2.43294764      0.88056355
    H     -1.94310038     -4.20363212      0.00167616      0.88420398
   32
Geometry Step: 11
    N      1.59908923      2.61044475     -2.63944806      5.27002701
    C      1.87259566      2.45634447     -1.53206868      3.83168242
    C      2.26794599      2.30706991     -0.15443531      3.96855304
    C      2.98681342      3.34447057      0.46652438      4.07490474
    C      3.39741250      3.21405365      1.78696386      4.09802239
    C      3.12940082      2.03342348      2.49844231      4.06458565
    C      3.59936491      1.91868421      3.90953469      3.33428244
    O      2.99580575      1.38177903      4.82363790      6.52703178
    O      4.80285427      2.51470085      4.13586541      6.50231048
    C      2.42658478      0.97406957      1.88275032      3.96361539
    C      2.26458809     -0.29101561      2.56938453      3.83729934
    N      2.19762257     -1.33210973      3.06135677      5.23736981
    C      1.94444987      1.13389252      0.56497328      3.86620890
    N      1.25479240      0.05803648     -0.07399726      5.05277584
    N     -0.00718518      0.03156647      0.04497773      5.03906046
    C     -0.64793187     -1.07736003     -0.63866681      3.95343326
    C     -1.01608195     -0.96263794     -1.98078227      4.10717663
    C     -1.70122850     -2.01368445     -2.62381056      4.09446007
    C     -2.05009614     -1.92504216     -4.06194134      3.31745093
    O     -2.69157260     -2.77110288     -4.68284858      6.57446567
    O     -1.60349024     -0.81131192     -4.70344827      6.50582559
    C     -2.03474512     -3.17844744     -1.90668069      4.07234710
    C     -1.70305672     -3.29288588     -0.55978630      4.17621947
    C     -1.03349282     -2.23492530      0.06616692      3.61856545
    F     -0.69792114     -2.35771105      1.35183712      7.23941703
    H      3.21082254      4.25383927     -0.08551465      0.89520236
    H      3.94032155      4.02184715      2.27613274      0.89107453
    H      5.04464500      2.37488726      5.06318931      0.61956191
    H     -0.73564191     -0.06772252     -2.54199031      0.88180359
    H     -1.88932357     -0.85455169     -5.62730039      0.62085167
    H     -2.55023797     -3.97942391     -2.43051197      0.88055607
    H     -1.94067337     -4.19735672     -0.00313421      0.88385897
   32
Geometry Step: 12
    N      1.59395567      2.60818432     -2.65255995      5.27240187
    C      1.86541978      2.45736969     -1.52810719      3.83033926
    C      2.26460560      2.31045197     -0.16199686      3.96796451
    C      2.98524351      3.34288389      0.45962063      4.07472592
    C      3.39911727      3.21363043      1.78786365      4.10184858
    C      3.13115763      2.03192793      2.49704347      4.06285311
    C      3.60524162      1.91955513      3.91456031      3.33712932
    O      2.99232608      1.37176944      4.82615274      6.52693705
    O      4.81012030      2.51820504      4.15301946      6.50211237
    C      2.42377538      0.97287761      1.88845966      3.96375592
    C      2.25679079     -0.28538277      2.56661398      3.83495691
    N      2.19507332     -1.33205399      3.06095847      5.23871310
    C      1.94899690      1.13910406      0.56537734      3.86651007
    N      1.25551213      0.07040996     -0.07753823      5.05258505
    N     -0.00603748      0.01850721      0.04883978      5.03776203
    C     -0.64622348     -1.08457396     -0.63932300      3.95289073
    C     -1.00835397     -0.96196219     -1.98547935      4.10957230
    C     -1.70133752     -2.01234205     -2.61805127      4.09376261
    C     -2.05509989     -1.92484925     -4.06682454      3.31908111
    O     -2.69010141     -2.77310152     -4.68024869      6.56555355
    O     -1.60690252     -0.80728987     -4.71495095      6.51055410
    C     -2.03650353     -3.17684555     -1.90933266      4.07412016
    C     -1.70471900     -3.29671422     -0.55179035      4.17874001
    C     -1.02981765     -2.24069810      0.06797831      3.61801580
    F     -0.69678468     -2.34862798      1.35493725      7.23982243
    H      3.21056102      4.25464606     -0.09203979      0.89578097
    H      3.93889119      4.01650937      2.27776119      0.88947452
    H      5.06080067      2.38277514      5.07739640      0.61900641
    H     -0.74138170     -0.07550973     -2.54269946      0.87850737
    H     -1.88710541     -0.84503171     -5.64163474      0.62098882
    H     -2.55091016     -3.97998629     -2.43246859      0.88054077
    H     -1.94388021     -4.20201767      0.00383456      0.88299326
   32
Geometry Step: 13
    N      1.59684462      2.60945640     -2.64518112      5.27107818
    C      1.86945807      2.45679274     -1.53033655      3.83105580
    C      2.26648543      2.30854868     -0.15774153      3.96832533
    C      2.98612699      3.34377681      0.46350578      4.07482254
    C      3.39815790      3.21386860      1.78735729      4.09969901
    C      3.13016897      2.03276956      2.49783068      4.06383266
    C      3.60193445      1.91906502      3.91173210      3.33552073