   36
Geometry Step: 0
    C     -6.55575140      2.39255893     -1.54531188      3.95679548
    O     -5.74419882      1.46517156     -2.25619861      6.28538532
    C     -4.62604301      0.97752000     -1.63232394      3.70296032
    C     -4.25795595      1.28786365     -0.31985916      4.21855016
    C     -3.08913472      0.75335181      0.23071003      4.11157326
    C     -2.26147923     -0.09271983     -0.51531742      3.96731234
    N     -1.09637226     -0.61276377      0.09087538      5.06629448
    N      0.00000000      0.00000000      0.00000000      5.08291387
    C      0.07819929      1.21756615     -0.71082934      3.84535036
    C     -0.15158349      2.41961658     -0.02240238      4.23355284
    C     -0.07232997      3.63711848     -0.68617348      3.56978297
    F     -0.31918053      4.76877618     -0.01509802      7.25566789
    C      0.26113204      3.69570207     -2.03027853      4.20604188
    C      0.53802962      2.51349813     -2.71744270      4.04717397
    C      0.46317577      1.26570984     -2.06677073      4.16369088
    C      0.84368274      0.06987472     -2.88085299      3.31158985
    O      1.30633649      0.18217076     -4.00648448      6.53985488
    O      0.66908789     -1.13852032     -2.30938277      6.49394813
    C     -2.66323154     -0.45059067     -1.81233296      3.74028301
    O     -1.85595665     -1.27149810     -2.56289112      6.34447972
    C     -2.17220332     -2.64829745     -2.33792535      3.94485366
    C     -3.82017898      0.10441267     -2.38587503      4.08113262
    C     -4.17635464     -0.22082347     -3.73897852      3.80594162
    N     -4.46053822     -0.50351717     -4.82906071      5.28827645
    H     -6.99424234      1.92911049     -0.65563109      0.94733769
    H     -7.37654747      2.69182973     -2.20411281      0.93250866
    H     -5.99059594      3.29372590     -1.28579809      0.94574866
    H     -4.85627136      1.94536033      0.30410630      0.89820402
    H     -2.81502633      1.00575562      1.25355842      0.89916678
    H     -0.39885661      2.41127433      1.03481572      0.88768153
    H      0.31994384      4.65640890     -2.53357600      0.88633985
    H      0.82309341      2.56714443     -3.76837142      0.87267882
    H      0.24635747     -1.11473037     -1.42629950      0.63344808
    H     -3.21918563     -2.86170420     -2.57835949      0.94840535
    H     -1.95429769     -2.93904067     -1.30508305      0.96154593
    H     -1.54120023     -3.24815113     -3.00024885      0.92352870
   36
Geometry Step: 1
    C     -6.56448388      2.38879598     -1.56592601      3.95548144
    O     -5.72779143      1.46530479     -2.23713587      6.23975579
    C     -4.66271126      0.99619262     -1.64849583      3.69261465
    C     -4.26022984      1.29833291     -0.29013681      4.26049519
    C     -3.09766026      0.76065015      0.23996811      4.07562554
    C     -2.31757301     -0.04092442     -0.53009712      4.00783103
    N     -1.06615105     -0.67776124      0.14201774      5.07744274
    N      0.02448565     -0.02828625      0.03903239      5.10364933
    C      0.06807227      1.28767012     -0.73689742      3.86153093
    C     -0.16019818      2.40789325      0.01678045      4.22357843
    C     -0.07156858      3.64337331     -0.67410530      3.58768398
    F     -0.31904174      4.76387321     -0.01515205      7.23898506
    C      0.27101435      3.70833855     -2.07734337      4.20828877
    C      0.53634336      2.53325343     -2.70119094      4.03561933
    C      0.46934286      1.27498588     -2.08979235      4.15174499
    C      0.83959534      0.06352503     -2.88293105      3.32164911
    O      1.31311274      0.18213148     -4.01859249      6.53412403
    O      0.68494298     -1.16793524     -2.29665683      6.49729015
    C     -2.65856462     -0.42914271     -1.81636943      3.71498932
    O     -1.87504068     -1.29979702     -2.56583106      6.35049125
    C     -2.14473613     -2.66317653     -2.36873050      3.92672847
    C     -3.81424061      0.09154693     -2.39976410      4.11187467
    C     -4.18870667     -0.23798587     -3.78701455      3.80836328
    N     -4.45181532     -0.49253200     -4.79145474      5.28015553
    H     -6.99169626      1.92983115     -0.64448114      0.94900765
    H     -7.37356251      2.68798421     -2.20723920      0.92437926
    H     -5.98569185      3.29615555     -1.27643149      0.94829539
    H     -4.85836936      1.94479028      0.29925987      0.89615555
    H     -2.81473690      1.00647038      1.24849001      0.89847650
    H     -0.40189564      2.40634570      1.03546191      0.87274071
    H      0.31956109      4.65569827     -2.53419695      0.87690788
    H      0.82241964      2.55635803     -3.76151262      0.88441584
    H      0.26413230     -1.11961892     -1.46228683      0.62762070
    H     -3.22745935     -2.85932426     -2.57471825      0.96497465
    H     -1.95796692     -2.93938018     -1.29210244      0.97662516
    H     -1.54080828     -3.24447246     -2.99962829      0.91440770
   36
Geometry Step: 2
    C     -6.55795396      2.39160982     -1.55051131      3.95620332
    O     -5.74006044      1.46520516     -2.25139049      6.27457136
    C     -4.63529170      0.98222973     -1.63640291      3.69970112
    C     -4.25852948      1.29050427     -0.31236241      4.22887673
    C     -3.09128508      0.75519264      0.23304516      4.10146891
    C     -2.27562754     -0.07965568     -0.51904525      3.97793916
    N     -1.08874968     -0.62915783      0.10377482      5.07041761
    N      0.00617592     -0.00713453      0.00984499      5.08809185
    C      0.07564499      1.23524820     -0.71740439      3.84994610
    C     -0.15375634      2.41665965     -0.01251945      4.23090474
    C     -0.07213793      3.63869611     -0.68312957      3.57433850
    F     -0.31914553      4.76753952     -0.01511165      7.25164082
    C      0.26362461      3.69888932     -2.04214951      4.20644520
    C      0.53760430      2.51848093     -2.71334358      4.04439535
    C      0.46473127      1.26804950     -2.07257738      4.16031135
    C      0.84265179      0.06827316     -2.88137713      3.31407121
    O      1.30804564      0.18216085     -4.00953844      6.53843617
    O      0.67308696     -1.14593953     -2.30617295      6.49490774
    C     -2.66205442     -0.44518094     -1.81335106      3.73326756
    O     -1.86077014     -1.27863583     -2.56363265      6.34609552
    C     -2.16527538     -2.65205035     -2.34569521      3.94026681
    C     -3.81868117      0.10116760     -2.38937822      4.08921811
    C     -4.17947014     -0.22515228     -3.75109446      3.80608456
    N     -4.45833807     -0.50074642     -4.81957550      5.28640511
    H     -6.99360015      1.92929226     -0.65281878      0.94790686
    H     -7.37579459      2.69085979     -2.20490137      0.93052187
    H     -5.98935900      3.29433872     -1.28343559      0.94653086
    H     -4.85680053      1.94521655      0.30288391      0.89777295
    H     -2.81495333      1.00593590      1.25228004      0.89905427
    H     -0.39962313      2.41003120      1.03497871      0.88384601
    H      0.31984730      4.65622966     -2.53373262      0.88392979
    H      0.82292347      2.56442382     -3.76664145      0.87566139
    H      0.25084075     -1.11596339     -1.43537644      0.63175312
    H     -3.22127248     -2.86110392     -2.57744107      0.95260252
    H     -1.95522316     -2.93912631     -1.30180900      0.96519802
    H     -1.54110137     -3.24722327     -3.00009233      0.92121742
   36
Geometry Step: 3
    C     -6.55935502      2.39048444     -1.55462753      3.95450424
    O     -5.73826363      1.46709980     -2.24694236      6.26798326
    C     -4.63943865      0.98519716     -1.63684712      3.69795374
    C     -4.26260342      1.29349063     -0.30884012      4.23192147
    C     -3.09762344      0.76105233      0.23826015      4.09515478
    C     -2.28190179     -0.06844010     -0.51999452      3.98940007
    N     -1.07966690     -0.64564684      0.11860511      5.07088503
    N      0.01074768     -0.01456810      0.02126887      5.09031987
    C      0.07130515      1.24648555     -0.72282273      3.85678430
    C     -0.15622645      2.42165594     -0.00362495      4.22850112
    C     -0.07036517      3.63816711     -0.68392076      3.57506243
    F     -0.31923417      4.76685872     -0.01467617      7.25283453
    C      0.26388303      3.70432746     -2.04615303      4.20596864
    C      0.53920924      2.52311142     -2.71466042      4.04434269
    C      0.46572726      1.27222564     -2.07821753      4.15787276
    C      0.84261068      0.06414998     -2.88482088      3.31624067
    O      1.30912074      0.18100032     -4.01067574      6.53482514
    O      0.68282411     -1.15428336     -2.30835385      6.49410944
    C     -2.66144873     -0.43880441     -1.81813484      3.72975855
    O     -1.86731105     -1.28691344     -2.56454340      6.34663942
    C     -2.15999970     -2.65690874     -2.35168336      3.93611875
    C     -3.82236515      0.09993564     -2.39679455      4.09052608
    C     -4.17517680     -0.22374663     -3.73620863      3.80429480
    N     -4.46283716     -0.50400284     -4.83463977      5.29367692
    H     -6.99212851      1.93025692     -0.64981318      0.94912474
    H     -7.37570980      2.68943684     -2.20763961      0.92922744
    H     -5.98837851      3.29408239     -1.28022369      0.94788464
    H     -4.85898109      1.94656323      0.30274598      0.89709824
    H     -2.81448151      1.00630271      1.25135958      0.89769621
    H     -0.40171942      2.40740406      1.03891098      0.88071376
    H      0.32003326      4.65859805     -2.53608892      0.88232270
    H      0.82252945      2.56019662     -3.76324260      0.87587433
    H      0.25539216     -1.11805026     -1.44450439      0.63165978
    H     -3.22270136     -2.86054552     -2.57595046      0.95530483
    H     -1.95682579     -2.93916305     -1.29912608      0.96790568
    H     -1.53831730     -3.24784556     -3.00258401      0.91950897
   36
Geometry Step: 4
    C     -6.55882493      2.39091023     -1.55307015      3.95513501
    O     -5.73894346      1.46638296     -2.24862532      6.27050963
    C     -4.63786964      0.98407442     -1.63667905      3.69857628
    C     -4.26106203      1.29236073     -0.31017279      4.23078832
    C     -3.09522530      0.75883530      0.23628704      4.09748261
    C     -2.27952791     -0.07268355     -0.51963536      3.98507764
    N     -1.08310339     -0.63940817      0.11299403      5.07080154
    N      0.00901794     -0.01175559      0.01694661      5.08948176
    C      0.07294714      1.24223387     -0.72077269      3.85421419
    C     -0.15529188      2.41976558     -0.00699021      4.22939795
    C     -0.07103589      3.63836726     -0.68362141      3.57480845
    F     -0.31920063      4.76711631     -0.01484093      7.25238575
    C      0.26378526      3.70226992     -2.04463829      4.20614255
    C      0.53860201      2.52135946     -2.71416219      4.04436445
    C      0.46535042      1.27064558     -2.07608356      4.15878027
    C      0.84262623      0.06571000     -2.88351793      3.31541343
    O      1.30871397      0.18143941     -4.01024544      6.53620184
    O      0.67914003     -1.15112645     -2.30752870      6.49440967
    C     -2.66167789     -0.44121699     -1.81632488      3.73104370
    O     -1.86483628     -1.28378158     -2.56419882      6.34644566
    C     -2.16199577     -2.65507055     -2.34941773      3.93768445
    C     -3.82097131      0.10040176     -2.39398856      4.09014507
    C     -4.17680120     -0.22427846     -3.74184073      3.80484459
    N     -4.46113491     -0.50277077     -4.82894016      5.29090087
    H     -6.99268531      1.92989193     -0.65095036      0.94866910
    H     -7.37574188      2.68997521     -2.20660359      0.92972101
    H     -5.98874948      3.29417937     -1.28143892      0.94737725
    H     -4.85815607      1.94605371      0.30279816      0.89735661
    H     -2.81466002      1.00616393      1.25170784      0.89821095
    H     -0.40092628      2.40839804      1.03742319      0.88189283
    H      0.31996290      4.65770196     -2.53519741      0.88292893
    H      0.82267853      2.56179599     -3.76452856      0.87580071
    H      0.25367012     -1.11726068     -1.44105080      0.63168940
    H     -3.22216074     -2.86075679     -2.57651444      0.95429084
    H     -1.95621943     -2.93914915     -1.30014117      0.96687091
    H     -1.53937066     -3.24761012     -3.00164127      0.92015576
   36
Geometry Step: 5
    C     -6.55858437      2.39069614     -1.55275068      3.95330562
    O     -5.74069572      1.46901790     -2.24747972      6.27518945
    C     -4.63455191      0.98363232     -1.63332860      3.69785948
    C     -4.26661174      1.29428813     -0.31252570      4.22574389
    C     -3.10104646      0.76422188      0.23986620      4.09902707
    C     -2.27426436     -0.07043196     -0.51742251      3.99020456
    N     -1.07815171     -0.64503429      0.12094718      5.06861309
    N      0.00924083     -0.01484745      0.02308657      5.08784305
    C      0.06883189      1.24017113     -0.72020552      3.85804592
    C     -0.15615744      2.42746158     -0.00595654      4.22829010
    C     -0.06915704      3.63793970     -0.68652284      3.57188560
    F     -0.31924791      4.76736018     -0.01447350      7.25602580
    C      0.26215732      3.70575189     -2.03974517      4.20497340
    C      0.54091399      2.52384299     -2.71887474      4.04640715
    C      0.46478438      1.27355813     -2.07752528      4.15954188
    C      0.84350774      0.06157558     -2.88712723      3.31604940
    O      1.30905164      0.17977386     -4.01021370      6.53456567
    O      0.68968966     -1.15557034     -2.31402377      6.49159223
    C     -2.66146776     -0.43749789     -1.82056262      3.73148684
    O     -1.86927739     -1.28737206     -2.56497149      6.34720562
    C     -2.16264893     -2.65859409     -2.34892451      3.93728143
    C     -3.82564917      0.10371883     -2.39403712      4.08798636
    C     -4.17768911     -0.22744272     -3.74596038      3.80516465
    N     -4.46193491     -0.50249947     -4.82997119      5.28896359
    H     -6.99106160      1.93133573     -0.64969427      0.94977650
    H     -7.37646908      2.68878912     -2.21011265      0.93064814
    H     -5.98883611      3.29289393     -1.27917241      0.94845402
    H     -4.86145922      1.94863102      0.30402074      0.89720696
    H     -2.81409217      1.00693112      1.25268101      0.89741744
    H     -0.40346405      2.40594885      1.04370510      0.88225946
    H      0.32030716      4.66183340     -2.53857401      0.88364317
    H      0.82266076      2.55843209     -3.76251780      0.87376556
    H      0.25594093     -1.11938498     -1.44548029      0.63314772
    H     -3.22175957     -2.86087954     -2.57526187      0.95357260
    H     -1.95765289     -2.93922503     -1.30009119      0.96602907
    H     -1.53483347     -3.24986160     -3.00600404      0.92082751
   36
Geometry Step: 6
    C     -6.55819513      2.39034974     -1.55223378      3.95033172
    O     -5.74353094      1.47328132     -2.24562609      6.28259215
    C     -4.62918370      0.98291699     -1.62790745      3.69674837
    C     -4.27559136      1.29740673     -0.31633278      4.21776758
    C     -3.11046529      0.77293756      0.24565740      4.10156017
    C     -2.26574774     -0.06678883     -0.51384205      3.99849089
    N     -1.07013971     -0.65413753      0.13381564      5.06509356
    N      0.00960146     -0.01985019      0.03302123      5.08517714
    C      0.06217327      1.23683355     -0.71928781      3.86432664
    C     -0.15755796      2.43991397     -0.00428402      4.22638931
    C     -0.06611698      3.63724791     -0.69121745      3.56733484
    F     -0.31932440      4.76775479     -0.01387897      7.26187192
    C      0.25952326      3.71138584     -2.03182795      4.20297621
    C      0.54465486      2.52786143     -2.72649982      4.04978095
    C      0.46386852      1.27827073     -2.07985802      4.16069503
    C      0.84493405      0.05488596     -2.89296719      3.31722328
    O      1.30959800      0.17707895     -4.01016235      6.53178297
    O      0.70675933     -1.16276070     -2.32453302      6.48708480
    C     -2.66112775     -0.43148026     -1.82741943      3.73221872
    O     -1.87646326     -1.29318157     -2.56622171      6.34841674
    C     -2.16370576     -2.66429528     -2.34812648      3.93664101
    C     -3.83321811      0.10908598     -2.39411569      4.08447832
    C     -4.17912577     -0.23256259     -3.75262612      3.80573593
    N     -4.46322932     -0.50206049     -4.83163943      5.28587710
    H     -6.98843438      1.93367184     -0.64766186      0.95157369
    H     -7.37764571      2.68686997     -2.21579042      0.93214003
    H     -5.98897627      3.29081404     -1.27550512      0.95019909
    H     -4.86680384      1.95280119      0.30599891      0.89688862
    H     -2.81317336      1.00817245      1.25425563      0.89606138
    H     -0.40757023      2.40198597      1.05386945      0.88276933
    H      0.32086417      4.66851821     -2.54403746      0.88474493
    H      0.82263202      2.55298918     -3.75926431      0.87052364
    H      0.25961519     -1.12282218     -1.45264736      0.63552308
    H     -3.22111047     -2.86107816     -2.57323518      0.95239816
    H     -1.95997227     -2.93934782     -1.30001033      0.96466969
    H     -1.52749215     -3.25350458     -3.01306315      0.92191304
   36
Geometry Step: 7
    C     -6.55852493      2.39064324     -1.55267174      3.95285437
    O     -5.74112869      1.46966896     -2.24719665      6.27633198
    C     -4.63373213      0.98352308     -1.63250074      3.69769259
    C     -4.26798301      1.29476437     -0.31310707      4.22451047
    C     -3.10248480      0.76555285      0.24075057      4.09940694
    C     -2.27296379     -0.06987562     -0.51687575      3.99146948
    N     -1.07692820     -0.64642444      0.12291231      5.06807332
    N      0.00929590     -0.01561142      0.02460368      5.08743646
    C      0.06781506      1.23966145     -0.72006537      3.85900003
    C     -0.15637131      2.42936317     -0.00570113      4.22801534
    C     -0.06869279      3.63783406     -0.68723975      3.57117702
    F     -0.31925959      4.76742044     -0.01438271      7.25692462
    C      0.26175507      3.70661225     -2.03853614      4.20467794
    C      0.54148526      2.52445664     -2.72003916      4.04691384
    C      0.46464452      1.27427779     -2.07788151      4.15971893
    C      0.84372555      0.06055401     -2.88801904      3.31621776
    O      1.30913508      0.17936233     -4.01020586      6.53414749
    O      0.69229636     -1.15666837     -2.31562863      6.49089997
    C     -2.66141584     -0.43657894     -1.82160972      3.73159117
    O     -1.87037474     -1.28825922     -2.56516241      6.34739359
    C     -2.16281032     -2.65946471     -2.34880265      3.93718105
    C     -3.82680501      0.10453844     -2.39404912      4.08746084
    C     -4.17790850     -0.22822457     -3.74697830      3.80525088
    N     -4.46213258     -0.50243243     -4.83022595      5.28848187
    H     -6.99066040      1.93169247     -0.64938390      0.95005171
    H     -7.37664876      2.68849605     -2.21097970      0.93087558
    H     -5.98885751      3.29257631     -1.27861238      0.94872107
    H     -4.86227540      1.94926784      0.30432282      0.89716522
    H     -2.81395186      1.00712068      1.25292147      0.89721480
    H     -0.40409110      2.40534368      1.04525729      0.88234499
    H      0.32039222      4.66285424     -2.53940833      0.88381681
    H      0.82265637      2.55760090     -3.76202096      0.87326340
    H      0.25650203     -1.11990988     -1.44657477      0.63350996
    H     -3.22166045     -2.86090987     -2.57495238      0.95339353
    H     -1.95800708     -2.93924378     -1.30007885      0.96582019
    H     -1.53371238     -3.25041792     -3.00708203      0.92099480
   36
Geometry Step: 8
    C     -6.55958750      2.39227036     -1.55044432      3.95393086
    O     -5.74128137      1.47149005     -2.24609877      6.27586694
    C     -4.63569953      0.98535847     -1.63335587      3.69657463
    C     -4.27353056      1.29891055     -0.31026607      4.22752215
    C     -3.10373314      0.76624977      0.23779381      4.09767814
    C     -2.26788691     -0.06743959     -0.51248471      3.99075580
    N     -1.07704043     -0.64904969      0.13161972      5.06840717
    N      0.01239711     -0.01513066      0.03073974      5.08723305
    C      0.06080788      1.23723255     -0.71373872      3.85610219
    C     -0.15669561      2.42633869     -0.00640982      4.22852892
    C     -0.06847252      3.64497511     -0.68447098      3.57160658
    F     -0.31890936      4.76830343     -0.01469958      7.25130008
    C      0.26303047      3.70874211     -2.04291951      4.20447214
    C      0.54180784      2.53003465     -2.71709626      4.04445312
    C      0.46212849      1.27465568     -2.07685760      4.16367262
    C      0.84472981      0.05710675     -2.88981088      3.31880375
    O      1.31196525      0.17770296     -4.01685315      6.53594795
    O      0.70706164     -1.16321029     -2.32041580      6.48637091
    C     -2.65997814     -0.43069574     -1.82032518      3.73189123
    O     -1.87618733     -1.28968136     -2.56740770      6.35064583
    C     -2.16515902     -2.66592985     -2.34691872      3.93880311
    C     -3.82830266      0.10683531     -2.39445054      4.08802308
    C     -4.18062677     -0.23168785     -3.75126050      3.80562816
    N     -4.46370425     -0.50280677     -4.83387888      5.28758257
    H     -6.98818926      1.93433250     -0.64770210      0.94899830
    H     -7.37709371      2.68619936     -2.21621433      0.93088172
    H     -5.98953974      3.29046776     -1.27498956      0.94769806
    H     -4.86952433      1.95434460      0.30593599      0.89610076
    H     -2.81387983      1.00997405      1.25764450      0.89982933
    H     -0.40805417      2.40276916      1.05367301      0.88490160
    H      0.32058662      4.66899551     -2.54338933      0.88478698
    H      0.82447187      2.55302443     -3.76483889      0.87417571
    H      0.26253899     -1.12490802     -1.45806748      0.63483197
    H     -3.22106560     -2.86281801     -2.57315070      0.95107048
    H     -1.96013264     -2.94013565     -1.30062356      0.96330530
    H     -1.52692935     -3.25365622     -3.01347180      0.92161882
   36
Geometry Step: 9
    C     -6.56130678      2.39490308     -1.54684027      3.95571662
    O     -5.74152841      1.47443664     -2.24432237      6.27505249
    C     -4.63888285      0.98832819     -1.63473949      3.69482631
    C     -4.28250667      1.30561921     -0.30566924      4.23239565
    C     -3.10575299      0.76737741      0.23300968      4.09486891
    C     -2.25967233     -0.06349801     -0.50537986      3.98953607
    N     -1.07722201     -0.65329745      0.14570861      5.06897262
    N      0.01741497     -0.01435278      0.04066809      5.08683647
    C      0.04947004      1.23330251     -0.70350197      3.85146768
    C     -0.15722033      2.42144498     -0.00755651      4.22928988
    C     -0.06811611      3.65652956     -0.67999101      3.57231358
    F     -0.31834268      4.76973213     -0.01521230      7.24199719
    C      0.26509411      3.71218831     -2.05001195      4.20416248
    C      0.54232978      2.53906007     -2.71233455      4.04049847
    C      0.45805747      1.27526711     -2.07520087      4.17004519
    C      0.84635474      0.05152896     -2.89271013      3.32311454
    O      1.31654456      0.17501804     -4.02760870      6.53860392
    O      0.73095237     -1.17379535     -2.32816161      6.47950338
    C     -2.65765191     -0.42117653     -1.81824675      3.73240751
    O     -1.88559230     -1.29198243     -2.57104065      6.35580760
    C     -2.16895929     -2.67639067     -2.34387047      3.94144743
    C     -3.83072590      0.11055173     -2.39510005      4.08885145
    C     -4.18502502     -0.23729155     -3.75818925      3.80625151
    N     -4.46624728     -0.50341247     -4.83978946      5.28613441
    H     -6.98419087      1.93860415     -0.64498089      0.94729345
    H     -7.37781367      2.68248325     -2.22468414      0.93085652
    H     -5.99064360      3.28705604     -1.26912771      0.94604517
    H     -4.88125336      1.96255896      0.30854614      0.89436553
    H     -2.81376329      1.01459090      1.26528652      0.90415607
    H     -0.41446656      2.39860349      1.06728992      0.88914435
    H      0.32090118      4.67893229     -2.54983072      0.88632639
    H      0.82740940      2.54561955     -3.76939840      0.87564527
    H      0.27230700     -1.13299518     -1.47666308      0.63679814
    H     -3.22010310     -2.86590543     -2.57023551      0.94734867
    H     -1.96357186     -2.94157872     -1.30150494      0.95933166
    H     -1.51595418     -3.25889591     -3.02381066      0.92258744
   36
Geometry Step: 10
    C     -6.55963542      2.39234374     -1.55034387      3.95397997
    O     -5.74128825      1.47157218     -2.24604926      6.27584144
    C     -4.63578826      0.98544124     -1.63339443      3.69652062
    C     -4.27378074      1.29909754     -0.31013795      4.22766467
    C     -3.10378944      0.76628120      0.23766047      4.09760552
    C     -2.26765795     -0.06732973     -0.51228668      3.99072922
    N     -1.07704549     -0.64916809      0.13201242      5.06842381
    N      0.01253697     -0.01510898      0.03101647      5.08721910
    C      0.06049187      1.23712301     -0.71345339      3.85597427
    C     -0.15671023      2.42620229     -0.00644178      4.22855177
    C     -0.06846259      3.64529716     -0.68434611      3.57162884
    F     -0.31889356      4.76834325     -0.01471388      7.25104560
    C      0.26308799      3.70883817     -2.04311719      4.20445641
    C      0.54182239      2.53028622     -2.71696354      4.04434267
    C      0.46201502      1.27467272     -2.07681142      4.16384875
    C      0.84477510      0.05695128     -2.88989169      3.31892041
    O      1.31209288      0.17762812     -4.01715294      6.53602834
    O      0.70772753     -1.16350533     -2.32063170      6.48616906
    C     -2.65991331     -0.43043042     -1.82026725      3.73190343
    O     -1.87644947     -1.28974550     -2.56750896      6.35078885
    C     -2.16526494     -2.66622142     -2.34683376      3.93887606
    C     -3.82837020      0.10693890     -2.39446864      4.08804400
    C     -4.18074936     -0.23184403     -3.75145362      3.80564417
    N     -4.46377513     -0.50282365     -4.83404363      5.28754167
    H     -6.98807782      1.93445156     -0.64762625      0.94895109
    H     -7.37711378      2.68609579     -2.21645040      0.93088167
    H     -5.98957051      3.29037266     -1.27482618      0.94765218
    H     -4.86985125      1.95457355      0.30600874      0.89605254
    H     -2.81387658      1.01010273      1.25785750      0.89994972
    H     -0.40823290      2.40265305      1.05405254      0.88502022
    H      0.32059539      4.66927247     -2.54356887      0.88483049
    H      0.82455374      2.55281804     -3.76496598      0.87421770
    H      0.26281125     -1.12513343     -1.45858579      0.63489005
    H     -3.22103877     -2.86290406     -2.57306944      0.95096584
    H     -1.96022850     -2.94017587     -1.30064813      0.96319281
    H     -1.52662345     -3.25380226     -3.01375997      0.92164706
   36
Geometry Step: 11
    C     -6.56270858      2.39453466     -1.55003697      3.95583044
    O     -5.74156807      1.47313041     -2.24566070      6.27171692
    C     -4.64114943      0.99004269     -1.63416841      3.69628079
    C     -4.27603276      1.30175734     -0.30692040      4.23043300
    C     -3.10225441      0.76728339      0.23766895      4.09602241
    C     -2.26614415     -0.06593491     -0.51048762      3.99096086
    N     -1.07454000     -0.64514328      0.13934347      5.06779844
    N      0.01057139     -0.01649253      0.03733625      5.08486147
    C      0.05620253      1.23303230     -0.71216230      3.85527470
    C     -0.15926666      2.42567790     -0.00117666      4.22986776
    C     -0.06761709      3.64637756     -0.68397013      3.57215680
    F     -0.31896326      4.77330253     -0.01315781      7.25311680
    C      0.26364502      3.71783307     -2.04455139      4.20563603
    C      0.54253550      2.52745094     -2.71456803      4.04553143
    C      0.45740935      1.27233236     -2.07197686      4.16447893
    C      0.84962210      0.05646315     -2.89739924      3.32016821
    O      1.31297766      0.17617212     -4.02033040      6.52838001
    O      0.72454371     -1.16880449     -2.32467094      6.48925309
    C     -2.65760378     -0.42564355     -1.81549744      3.73016756
    O     -1.88246019     -1.28959586     -2.56940557      6.35456695
    C     -2.16412911     -2.67312351     -2.34919269      3.93951911
    C     -3.82620336      0.10707436     -2.39684898      4.09055871
    C     -4.18260217     -0.23302937     -3.74798423      3.80508314
    N     -4.46683861     -0.50472434     -4.84288391      5.29047710
    H     -6.98599999      1.93719762     -0.64486451      0.94800300
    H     -7.37615314      2.68306391     -2.22087843      0.92928416
    H     -5.99015397      3.28924039     -1.27030451      0.94666011
    H     -4.87915568      1.96081522      0.30780544      0.89681429